 Entering Gaussian System, Link 0=g09
 Input=Gas-HF-6-311+G2dfp-Freq-Opt-CH3SNHCH3.inp
 Output=Gas-HF-6-311+G2dfp-Freq-Opt-CH3SNHCH3.log
 Initial command:
 /usr/local/g09/l1.exe /local/gaussian-tmp/3702326/Gau-6732.inp -scrdir=/local/gaussian-tmp/3702326/
 Entering Link 1 = /usr/local/g09/l1.exe PID=      6733.
  
 Copyright (c) 1988,1990,1992,1993,1995,1998,2003,2009, Gaussian, Inc.
                  All Rights Reserved.
  
 This is part of the Gaussian(R) 09 program.  It is based on
 the Gaussian(R) 03 system (copyright 2003, Gaussian, Inc.),
 the Gaussian(R) 98 system (copyright 1998, Gaussian, Inc.),
 the Gaussian(R) 94 system (copyright 1995, Gaussian, Inc.),
 the Gaussian 92(TM) system (copyright 1992, Gaussian, Inc.),
 the Gaussian 90(TM) system (copyright 1990, Gaussian, Inc.),
 the Gaussian 88(TM) system (copyright 1988, Gaussian, Inc.),
 the Gaussian 86(TM) system (copyright 1986, Carnegie Mellon
 University), and the Gaussian 82(TM) system (copyright 1983,
 Carnegie Mellon University). Gaussian is a federally registered
 trademark of Gaussian, Inc.
  
 This software contains proprietary and confidential information,
 including trade secrets, belonging to Gaussian, Inc.
  
 This software is provided under written license and may be
 used, copied, transmitted, or stored only in accord with that
 written license.
  
 The following legend is applicable only to US Government
 contracts under FAR:
  
                    RESTRICTED RIGHTS LEGEND
  
 Use, reproduction and disclosure by the US Government is
 subject to restrictions as set forth in subparagraphs (a)
 and (c) of the Commercial Computer Software - Restricted
 Rights clause in FAR 52.227-19.
  
 Gaussian, Inc.
 340 Quinnipiac St., Bldg. 40, Wallingford CT 06492
  
  
 ---------------------------------------------------------------
 Warning -- This program may not be used in any manner that
 competes with the business of Gaussian, Inc. or will provide
 assistance to any competitor of Gaussian, Inc.  The licensee
 of this program is prohibited from giving any competitor of
 Gaussian, Inc. access to this program.  By using this program,
 the user acknowledges that Gaussian, Inc. is engaged in the
 business of creating and licensing software in the field of
 computational chemistry and represents and warrants to the
 licensee that it is not a competitor of Gaussian, Inc. and that
 it will not use this program in any manner prohibited above.
 ---------------------------------------------------------------
  

 Cite this work as:
 Gaussian 09, Revision A.02,
 M. J. Frisch, G. W. Trucks, H. B. Schlegel, G. E. Scuseria, 
 M. A. Robb, J. R. Cheeseman, G. Scalmani, V. Barone, B. Mennucci, 
 G. A. Petersson, H. Nakatsuji, M. Caricato, X. Li, H. P. Hratchian, 
 A. F. Izmaylov, J. Bloino, G. Zheng, J. L. Sonnenberg, M. Hada, 
 M. Ehara, K. Toyota, R. Fukuda, J. Hasegawa, M. Ishida, T. Nakajima, 
 Y. Honda, O. Kitao, H. Nakai, T. Vreven, J. A. Montgomery, Jr., 
 J. E. Peralta, F. Ogliaro, M. Bearpark, J. J. Heyd, E. Brothers, 
 K. N. Kudin, V. N. Staroverov, R. Kobayashi, J. Normand, 
 K. Raghavachari, A. Rendell, J. C. Burant, S. S. Iyengar, J. Tomasi, 
 M. Cossi, N. Rega, J. M. Millam, M. Klene, J. E. Knox, J. B. Cross, 
 V. Bakken, C. Adamo, J. Jaramillo, R. Gomperts, R. E. Stratmann, 
 O. Yazyev, A. J. Austin, R. Cammi, C. Pomelli, J. W. Ochterski, 
 R. L. Martin, K. Morokuma, V. G. Zakrzewski, G. A. Voth, 
 P. Salvador, J. J. Dannenberg, S. Dapprich, A. D. Daniels, 
 O. Farkas, J. B. Foresman, J. V. Ortiz, J. Cioslowski, 
 and D. J. Fox, Gaussian, Inc., Wallingford CT, 2009.
 
 ******************************************
 Gaussian 09:  EM64L-G09RevA.02 11-Jun-2009
                29-May-2015 
 ******************************************
 %chk=ttttttaadsads
 %mem=10GB
 %nproc=8
 Will use up to    8 processors via shared memory.
 ----------------------------
 # HF/6-311+G(2df,p) Opt Freq
 ----------------------------
 1/18=20,19=15,38=1/1,3;
 2/9=110,12=2,17=6,18=5,40=1/2;
 3/5=4,6=6,7=114,11=9,16=1,25=1,30=1,71=1/1,2,3;
 4//1;
 5/5=2,38=5/2;
 6/7=2,8=2,9=2,10=2,28=1/1;
 7//1,2,3,16;
 1/18=20,19=15/3(2);
 2/9=110/2;
 99//99;
 2/9=110/2;
 3/5=4,6=6,7=114,11=9,16=1,25=1,30=1,71=1/1,2,3;
 4/5=5,16=3/1;
 5/5=2,38=5/2;
 7//1,2,3,16;
 1/18=20,19=15/3(-5);
 2/9=110/2;
 6/7=2,8=2,9=2,10=2,19=2,28=1/1;
 99/9=1/99;
 -----
 title
 -----
 Symbolic Z-matrix:
 Charge =  0 Multiplicity = 1
 6                     1.84722   0.78686  -0.37474 
 1                     1.39495   1.76057  -0.25415 
 1                     2.82973   0.79348   0.08158 
 1                     1.93909   0.54512  -1.42312 
 7                     0.89749  -0.48877   0.49002 
 16                   -0.89748  -0.48877  -0.49002 
 6                    -1.84723   0.78686   0.37474 
 1                    -1.395     1.76059   0.25408 
 1                    -2.82976   0.79342  -0.08152 
 1                    -1.93902   0.54516   1.42314 
 1                     1.18227  -1.05718   1.2619 
 

 GradGradGradGradGradGradGradGradGradGradGradGradGradGradGradGradGradGrad
 Berny optimization.
 Initialization pass.
                           ----------------------------
                           !    Initial Parameters    !
                           ! (Angstroms and Degrees)  !
 --------------------------                            --------------------------
 ! Name  Definition              Value          Derivative Info.                !
 --------------------------------------------------------------------------------
 ! R1    R(1,2)                  1.0804         estimate D2E/DX2                !
 ! R2    R(1,3)                  1.0833         estimate D2E/DX2                !
 ! R3    R(1,4)                  1.0798         estimate D2E/DX2                !
 ! R4    R(1,5)                  1.8103         estimate D2E/DX2                !
 ! R5    R(5,6)                  2.0451         estimate D2E/DX2                !
 ! R6    R(5,11)                 1.0            estimate D2E/DX2                !
 ! R7    R(6,7)                  1.8103         estimate D2E/DX2                !
 ! R8    R(7,8)                  1.0804         estimate D2E/DX2                !
 ! R9    R(7,9)                  1.0833         estimate D2E/DX2                !
 ! R10   R(7,10)                 1.0798         estimate D2E/DX2                !
 ! A1    A(2,1,3)              109.0959         estimate D2E/DX2                !
 ! A2    A(2,1,4)              110.228          estimate D2E/DX2                !
 ! A3    A(2,1,5)              111.2326         estimate D2E/DX2                !
 ! A4    A(3,1,4)              109.4607         estimate D2E/DX2                !
 ! A5    A(3,1,5)              106.1951         estimate D2E/DX2                !
 ! A6    A(4,1,5)              110.5283         estimate D2E/DX2                !
 ! A7    A(1,5,6)              103.3886         estimate D2E/DX2                !
 ! A8    A(1,5,11)             128.3057         estimate D2E/DX2                !
 ! A9    A(6,5,11)             128.3057         estimate D2E/DX2                !
 ! A10   A(5,6,7)              103.3887         estimate D2E/DX2                !
 ! A11   A(6,7,8)              111.2325         estimate D2E/DX2                !
 ! A12   A(6,7,9)              106.195          estimate D2E/DX2                !
 ! A13   A(6,7,10)             110.5284         estimate D2E/DX2                !
 ! A14   A(8,7,9)              109.0959         estimate D2E/DX2                !
 ! A15   A(8,7,10)             110.228          estimate D2E/DX2                !
 ! A16   A(9,7,10)             109.4608         estimate D2E/DX2                !
 ! D1    D(2,1,5,6)             63.9797         estimate D2E/DX2                !
 ! D2    D(2,1,5,11)          -116.0203         estimate D2E/DX2                !
 ! D3    D(3,1,5,6)           -177.4445         estimate D2E/DX2                !
 ! D4    D(3,1,5,11)             2.5555         estimate D2E/DX2                !
 ! D5    D(4,1,5,6)            -58.8111         estimate D2E/DX2                !
 ! D6    D(4,1,5,11)           121.1889         estimate D2E/DX2                !
 ! D7    D(1,5,6,7)            -87.1697         estimate D2E/DX2                !
 ! D8    D(11,5,6,7)            92.8303         estimate D2E/DX2                !
 ! D9    D(5,6,7,8)             63.9847         estimate D2E/DX2                !
 ! D10   D(5,6,7,9)           -177.4397         estimate D2E/DX2                !
 ! D11   D(5,6,7,10)           -58.8062         estimate D2E/DX2                !
 --------------------------------------------------------------------------------
 Trust Radius=3.00D-01 FncErr=1.00D-07 GrdErr=1.00D-07
 Number of steps in this run=  47 maximum allowed number of steps= 100.
 GradGradGradGradGradGradGradGradGradGradGradGradGradGradGradGradGradGrad

                          Input orientation:                          
 ---------------------------------------------------------------------
 Center     Atomic      Atomic             Coordinates (Angstroms)
 Number     Number       Type             X           Y           Z
 ---------------------------------------------------------------------
      1          6           0        1.847223    0.786863   -0.374735
      2          1           0        1.394954    1.760574   -0.254151
      3          1           0        2.829734    0.793478    0.081576
      4          1           0        1.939092    0.545116   -1.423123
      5          7           0        0.897485   -0.488772    0.490021
      6         16           0       -0.897484   -0.488770   -0.490022
      7          6           0       -1.847225    0.786860    0.374737
      8          1           0       -1.395003    1.760585    0.254084
      9          1           0       -2.829762    0.793415   -0.081519
     10          1           0       -1.939023    0.545155    1.423140
     11          1           0        1.182273   -1.057185    1.261904
 ---------------------------------------------------------------------
                    Distance matrix (angstroms):
                    1          2          3          4          5
     1  C    0.000000
     2  H    1.080371   0.000000
     3  H    1.083324   1.762550   0.000000
     4  H    1.079814   1.771982   1.766082   0.000000
     5  N    1.810262   2.420914   2.354693   2.411222   0.000000
     6  S    3.028852   3.220319   3.982843   3.160025   2.045091
     7  C    3.769702   3.443159   4.686143   4.198445   3.028855
     8  H    3.443193   2.835871   4.337448   3.925121   3.220369
     9  H    4.686172   4.337444   5.661846   4.960194   3.982842
    10  H    4.198385   3.925042   4.960091   4.810508   3.159983
    11  H    2.553675   3.206777   2.744495   3.217066   1.000000
                    6          7          8          9         10
     6  S    0.000000
     7  C    1.810262   0.000000
     8  H    2.420912   1.080371   0.000000
     9  H    2.354691   1.083324   1.762549   0.000000
    10  H    2.411222   1.079813   1.771982   1.766083   0.000000
    11  H    2.778080   3.655875   3.949415   4.618000   3.512261
                   11
    11  H    0.000000
 Stoichiometry    C2H7NS
 Framework group  C1[X(C2H7NS)]
 Deg. of freedom    27
 Full point group                 C1      NOp   1
 Largest Abelian subgroup         C1      NOp   1
 Largest concise Abelian subgroup C1      NOp   1
                         Standard orientation:                         
 ---------------------------------------------------------------------
 Center     Atomic      Atomic             Coordinates (Angstroms)
 Number     Number       Type             X           Y           Z
 ---------------------------------------------------------------------
      1          6           0        2.053675    0.574228   -0.297514
      2          1           0        1.645034    1.573973   -0.324401
      3          1           0        3.016714    0.598201    0.198037
      4          1           0        2.174639    0.193232   -1.300614
      5          7           0        1.009745   -0.534623    0.681112
      6         16           0       -0.743329   -0.585662   -0.370803
      7          6           0       -1.662896    0.832278    0.277956
      8          1           0       -1.159368    1.761280    0.052975
      9          1           0       -2.625322    0.821357   -0.219245
     10          1           0       -1.807357    0.734459    1.343582
     11          1           0        1.236036   -1.008586    1.532083
 ---------------------------------------------------------------------
 Rotational constants (GHZ):      9.3432494      3.0749594      2.7948012
 Standard basis: 6-311+G(2df,p) (5D, 7F)
 There are   186 symmetry adapted basis functions of A   symmetry.
 Integral buffers will be    131072 words long.
 Raffenetti 1 integral format.
 Two-electron integral symmetry is turned on.
   186 basis functions,   278 primitive gaussians,   206 cartesian basis functions
    21 alpha electrons       21 beta electrons
       nuclear repulsion energy       159.4470366769 Hartrees.
 NAtoms=   11 NActive=   11 NUniq=   11 SFac= 7.50D-01 NAtFMM=   80 NAOKFM=F Big=F
 One-electron integrals computed using PRISM.
 NBasis=   186 RedAO= T  NBF=   186
 NBsUse=   186 1.00D-06 NBFU=   186
 Harris functional with IExCor=  205 diagonalized for initial guess.
 ExpMin= 4.05D-02 ExpMax= 9.34D+04 ExpMxC= 3.17D+03 IAcc=2 IRadAn=         0 AccDes= 0.00D+00
 HarFok:  IExCor=  205 AccDes= 0.00D+00 IRadAn=         0 IDoV= 1
 ScaDFX=  1.000000  1.000000  1.000000  1.000000
 FoFCou: FMM=F IPFlag=           0 FMFlag=      100000 FMFlg1=           0
         NFxFlg=           0 DoJE=T BraDBF=F KetDBF=T FulRan=T
         Omega=  0.000000  0.000000  1.000000  0.000000  0.000000 ICntrl=     500 IOpCl=  0
         NMat0=    1 NMatS0=    1 NMatT0=    0 NMatD0=    1 NMtDS0=    0 NMtDT0=    0
         I1Cent=           4 NGrid=           0.
 Petite list used in FoFCou.
 Initial guess orbital symmetries:
       Occupied  (A) (A) (A) (A) (A) (A) (A) (A) (A) (A) (A) (A)
                 (A) (A) (A) (A) (A) (A) (A) (A) (A)
       Virtual   (A) (A) (A) (A) (A) (A) (A) (A) (A) (A) (A) (A)
                 (A) (A) (A) (A) (A) (A) (A) (A) (A) (A) (A) (A)
                 (A) (A) (A) (A) (A) (A) (A) (A) (A) (A) (A) (A)
                 (A) (A) (A) (A) (A) (A) (A) (A) (A) (A) (A) (A)
                 (A) (A) (A) (A) (A) (A) (A) (A) (A) (A) (A) (A)
                 (A) (A) (A) (A) (A) (A) (A) (A) (A) (A) (A) (A)
                 (A) (A) (A) (A) (A) (A) (A) (A) (A) (A) (A) (A)
                 (A) (A) (A) (A) (A) (A) (A) (A) (A) (A) (A) (A)
                 (A) (A) (A) (A) (A) (A) (A) (A) (A) (A) (A) (A)
                 (A) (A) (A) (A) (A) (A) (A) (A) (A) (A) (A) (A)
                 (A) (A) (A) (A) (A) (A) (A) (A) (A) (A) (A) (A)
                 (A) (A) (A) (A) (A) (A) (A) (A) (A) (A) (A) (A)
                 (A) (A) (A) (A) (A) (A) (A) (A) (A) (A) (A) (A)
                 (A) (A) (A) (A) (A) (A) (A) (A) (A)
 The electronic state of the initial guess is 1-A.
 Requested convergence on RMS density matrix=1.00D-08 within 128 cycles.
 Requested convergence on MAX density matrix=1.00D-06.
 Requested convergence on             energy=1.00D-06.
 No special actions if energy rises.
 Keep R1 ints in memory in canonical form, NReq=231886576.
 SCF Done:  E(RHF) =  -531.706559560     A.U. after   16 cycles
             Convg  =    0.4652D-08             -V/T =  2.0015

 **********************************************************************

            Population analysis using the SCF density.

 **********************************************************************

 Orbital symmetries:
       Occupied  (A) (A) (A) (A) (A) (A) (A) (A) (A) (A) (A) (A)
                 (A) (A) (A) (A) (A) (A) (A) (A) (A)
       Virtual   (A) (A) (A) (A) (A) (A) (A) (A) (A) (A) (A) (A)
                 (A) (A) (A) (A) (A) (A) (A) (A) (A) (A) (A) (A)
                 (A) (A) (A) (A) (A) (A) (A) (A) (A) (A) (A) (A)
                 (A) (A) (A) (A) (A) (A) (A) (A) (A) (A) (A) (A)
                 (A) (A) (A) (A) (A) (A) (A) (A) (A) (A) (A) (A)
                 (A) (A) (A) (A) (A) (A) (A) (A) (A) (A) (A) (A)
                 (A) (A) (A) (A) (A) (A) (A) (A) (A) (A) (A) (A)
                 (A) (A) (A) (A) (A) (A) (A) (A) (A) (A) (A) (A)
                 (A) (A) (A) (A) (A) (A) (A) (A) (A) (A) (A) (A)
                 (A) (A) (A) (A) (A) (A) (A) (A) (A) (A) (A) (A)
                 (A) (A) (A) (A) (A) (A) (A) (A) (A) (A) (A) (A)
                 (A) (A) (A) (A) (A) (A) (A) (A) (A) (A) (A) (A)
                 (A) (A) (A) (A) (A) (A) (A) (A) (A) (A) (A) (A)
                 (A) (A) (A) (A) (A) (A) (A) (A) (A)
 The electronic state is 1-A.
 Alpha  occ. eigenvalues --  -91.98121 -15.57042 -11.28348 -11.24873  -8.97609
 Alpha  occ. eigenvalues --   -6.65741  -6.65661  -6.65563  -1.07916  -1.01013
 Alpha  occ. eigenvalues --   -0.92139  -0.82420  -0.60663  -0.59072  -0.58754
 Alpha  occ. eigenvalues --   -0.57532  -0.55262  -0.49038  -0.41766  -0.36377
 Alpha  occ. eigenvalues --   -0.34721
 Alpha virt. eigenvalues --    0.06603   0.07394   0.07836   0.08906   0.10498
 Alpha virt. eigenvalues --    0.11476   0.11942   0.12585   0.13932   0.14201
 Alpha virt. eigenvalues --    0.16599   0.16804   0.20124   0.21324   0.23481
 Alpha virt. eigenvalues --    0.24149   0.26612   0.27941   0.28611   0.30503
 Alpha virt. eigenvalues --    0.31202   0.32203   0.33912   0.37048   0.37401
 Alpha virt. eigenvalues --    0.38567   0.45698   0.46832   0.47908   0.50148
 Alpha virt. eigenvalues --    0.52468   0.54150   0.55781   0.61165   0.62199
 Alpha virt. eigenvalues --    0.63467   0.65344   0.65939   0.72375   0.76571
 Alpha virt. eigenvalues --    0.79061   0.79511   0.80997   0.83305   0.83522
 Alpha virt. eigenvalues --    0.87366   0.89448   0.91591   0.95125   0.97420
 Alpha virt. eigenvalues --    1.02431   1.04363   1.06436   1.09074   1.09481
 Alpha virt. eigenvalues --    1.10165   1.18476   1.20980   1.24040   1.25339
 Alpha virt. eigenvalues --    1.28488   1.36487   1.38582   1.41216   1.43365
 Alpha virt. eigenvalues --    1.45645   1.61616   1.71045   1.71165   1.71525
 Alpha virt. eigenvalues --    1.83719   1.87323   1.88243   1.90466   1.93150
 Alpha virt. eigenvalues --    1.97188   1.99248   2.01893   2.03683   2.05732
 Alpha virt. eigenvalues --    2.06996   2.12422   2.14949   2.16184   2.18370
 Alpha virt. eigenvalues --    2.20642   2.26249   2.31280   2.37262   2.48560
 Alpha virt. eigenvalues --    2.48696   2.49157   2.52468   2.54470   2.55544
 Alpha virt. eigenvalues --    2.56814   2.59229   2.60396   2.64649   2.66995
 Alpha virt. eigenvalues --    2.71002   2.71790   2.74034   2.74550   2.76101
 Alpha virt. eigenvalues --    2.82522   2.87989   2.89924   2.92705   2.94612
 Alpha virt. eigenvalues --    2.96598   3.09400   3.29778   3.38040   3.43641
 Alpha virt. eigenvalues --    3.51939   3.53342   3.54377   3.56464   3.58654
 Alpha virt. eigenvalues --    3.63652   3.68562   3.69056   3.70424   3.72511
 Alpha virt. eigenvalues --    3.76378   3.76833   3.80321   3.82905   3.96145
 Alpha virt. eigenvalues --    3.98406   4.00825   4.05387   4.05552   4.06955
 Alpha virt. eigenvalues --    4.13090   4.24112   4.32654   4.35596   4.37234
 Alpha virt. eigenvalues --    4.38557   4.49676   4.51255   4.56378   4.69094
 Alpha virt. eigenvalues --    4.81892   5.07335   5.08066   5.09231   5.09801
 Alpha virt. eigenvalues --    5.13319   5.41705   5.48559   5.65737   5.69202
 Alpha virt. eigenvalues --    5.95694   6.02914   8.64556  18.42213  18.62010
 Alpha virt. eigenvalues --   18.77773  25.33379  25.40180  36.98439 192.44381
          Condensed to atoms (all electrons):
              1          2          3          4          5          6
     1  C    4.913262   0.408357   0.408147   0.413794   0.239889  -0.063398
     2  H    0.408357   0.526449  -0.027177  -0.034977  -0.027407  -0.006477
     3  H    0.408147  -0.027177   0.516622  -0.025184  -0.031970   0.007395
     4  H    0.413794  -0.034977  -0.025184   0.499988  -0.022906  -0.005034
     5  N    0.239889  -0.027407  -0.031970  -0.022906   6.974230   0.123576
     6  S   -0.063398  -0.006477   0.007395  -0.005034   0.123576  15.835037
     7  C    0.014043   0.003514  -0.001256  -0.000949  -0.025621   0.145834
     8  H   -0.000703   0.000209  -0.000170   0.000240  -0.001174  -0.047291
     9  H   -0.000197  -0.000033   0.000011  -0.000003   0.006564  -0.041019
    10  H   -0.000092  -0.000112   0.000026  -0.000038  -0.004295  -0.040420
    11  H   -0.019090   0.000789   0.000857   0.000493   0.340996  -0.006987
              7          8          9         10         11
     1  C    0.014043  -0.000703  -0.000197  -0.000092  -0.019090
     2  H    0.003514   0.000209  -0.000033  -0.000112   0.000789
     3  H   -0.001256  -0.000170   0.000011   0.000026   0.000857
     4  H   -0.000949   0.000240  -0.000003  -0.000038   0.000493
     5  N   -0.025621  -0.001174   0.006564  -0.004295   0.340996
     6  S    0.145834  -0.047291  -0.041019  -0.040420  -0.006987
     7  C    5.126451   0.408397   0.400729   0.409109  -0.006950
     8  H    0.408397   0.559188  -0.027915  -0.041341   0.000037
     9  H    0.400729  -0.027915   0.525391  -0.022556  -0.000110
    10  H    0.409109  -0.041341  -0.022556   0.532113   0.001050
    11  H   -0.006950   0.000037  -0.000110   0.001050   0.388859
 Mulliken atomic charges:
              1
     1  C   -0.314011
     2  H    0.156865
     3  H    0.152698
     4  H    0.174575
     5  N   -0.571884
     6  S    0.098784
     7  C   -0.473301
     8  H    0.150523
     9  H    0.159137
    10  H    0.166556
    11  H    0.300057
 Sum of Mulliken atomic charges =   0.00000
 Mulliken charges with hydrogens summed into heavy atoms:
              1
     1  C    0.170128
     5  N   -0.271826
     6  S    0.098784
     7  C    0.002915
 Sum of Mulliken charges with hydrogens summed into heavy atoms =   0.00000
 Electronic spatial extent (au):  <R**2>=            505.6410
 Charge=              0.0000 electrons
 Dipole moment (field-independent basis, Debye):
    X=              0.4486    Y=              2.0162    Z=              0.2655  Tot=              2.0825
 Quadrupole moment (field-independent basis, Debye-Ang):
   XX=            -27.9448   YY=            -34.4668   ZZ=            -32.8945
   XY=             -0.5046   XZ=             -0.0861   YZ=             -1.6520
 Traceless Quadrupole moment (field-independent basis, Debye-Ang):
   XX=              3.8239   YY=             -2.6981   ZZ=             -1.1258
   XY=             -0.5046   XZ=             -0.0861   YZ=             -1.6520
 Octapole moment (field-independent basis, Debye-Ang**2):
  XXX=              4.7810  YYY=              4.8669  ZZZ=              5.3652  XYY=              2.3531
  XXY=              6.1030  XXZ=             -0.9670  XZZ=              3.0895  YZZ=             -3.5923
  YYZ=              0.8646  XYZ=             -2.7275
 Hexadecapole moment (field-independent basis, Debye-Ang**3):
 XXXX=           -417.9054 YYYY=           -145.4598 ZZZZ=            -90.0525 XXXY=              1.4558
 XXXZ=              7.2832 YYYX=             -0.8406 YYYZ=             -3.4361 ZZZX=              1.1842
 ZZZY=             -7.0344 XXYY=           -104.9799 XXZZ=            -83.5425 YYZZ=            -37.3032
 XXYZ=             -3.1626 YYXZ=              2.4609 ZZXY=             -5.3775
 N-N= 1.594470366769D+02 E-N=-1.578402728327D+03  KE= 5.308881279133D+02
 Calling FoFJK, ICntrl=      2127 FMM=F ISym2X=0 I1Cent= 0 IOpClX= 0 NMat=1 NMatS=1 NMatT=0.
 ***** Axes restored to original set *****
 -------------------------------------------------------------------
 Center     Atomic                   Forces (Hartrees/Bohr)
 Number     Number              X              Y              Z
 -------------------------------------------------------------------
      1        6          -0.019656556   -0.056272145    0.049082516
      2        1          -0.009225400   -0.008109566    0.006462451
      3        1          -0.003488221   -0.003629187    0.002115255
      4        1          -0.008521367   -0.010564616    0.004844712
      5        7          -0.032784880    0.090756428   -0.111994239
      6       16           0.073029286   -0.010341309    0.051713412
      7        6           0.008615399   -0.002318957    0.002735124
      8        1          -0.000017949    0.000100570    0.000400856
      9        1          -0.000212556   -0.001482048   -0.001428122
     10        1          -0.000908248    0.000238435   -0.000357326
     11        1          -0.006829509    0.001622394   -0.003574638
 -------------------------------------------------------------------
 Cartesian Forces:  Max     0.111994239 RMS     0.033264575

 GradGradGradGradGradGradGradGradGradGradGradGradGradGradGradGradGradGrad
 Berny optimization.
 Internal  Forces:  Max     0.106681463 RMS     0.025372069
 Search for a local minimum.
 Step number   1 out of a maximum of   47
 All quantities printed in internal units (Hartrees-Bohrs-Radians)
 Mixed Optimization -- RFO/linear search
 Second derivative matrix not updated -- first step.
     Eigenvalues ---    0.00230   0.00230   0.00230   0.00235   0.06937
     Eigenvalues ---    0.07563   0.09643   0.10243   0.13487   0.13605
     Eigenvalues ---    0.16000   0.16000   0.16000   0.16000   0.16000
     Eigenvalues ---    0.16000   0.16000   0.22000   0.25000   0.25325
     Eigenvalues ---    0.35596   0.35596   0.35949   0.35950   0.36017
     Eigenvalues ---    0.36017   0.476881000.000001000.000001000.00000
     Eigenvalues --- 1000.000001000.000001000.000001000.000001000.00000
     Eigenvalues --- 1000.000001000.00000
 RFO step:  Lambda=-9.87481968D-02 EMin= 2.30000000D-03
 Linear search not attempted -- first point.
 Maximum step size (   0.300) exceeded in Quadratic search.
    -- Step size scaled by   0.467
 Iteration  1 RMS(Cart)=  0.07329484 RMS(Int)=  0.00244490
 Iteration  2 RMS(Cart)=  0.00467504 RMS(Int)=  0.00014796
 Iteration  3 RMS(Cart)=  0.00000685 RMS(Int)=  0.00014789
 Iteration  4 RMS(Cart)=  0.00000000 RMS(Int)=  0.00014789
 Variable       Old X    -DE/DX   Delta X   Delta X   Delta X     New X
                                 (Linear)    (Quad)   (Total)
    R1        2.04160  -0.00273   0.00000  -0.00278  -0.00278   2.03883
    R2        2.04719  -0.00229   0.00000  -0.00236  -0.00236   2.04483
    R3        2.04055  -0.00306   0.00000  -0.00312  -0.00312   2.03744
    R4        3.42090  -0.10668   0.00000  -0.21218  -0.21218   3.20872
    R5        3.86466  -0.09609   0.00000  -0.19208  -0.19208   3.67259
    R6        1.88973  -0.00563   0.00000  -0.00456  -0.00456   1.88516
    R7        3.42090  -0.00572   0.00000  -0.00758  -0.00758   3.41331
    R8        2.04161   0.00004   0.00000   0.00004   0.00004   2.04165
    R9        2.04719   0.00079   0.00000   0.00081   0.00081   2.04799
   R10        2.04055  -0.00032   0.00000  -0.00033  -0.00033   2.04022
    A1        1.90408   0.00952   0.00000   0.01879   0.01874   1.92283
    A2        1.92384   0.01400   0.00000   0.02252   0.02190   1.94575
    A3        1.94138  -0.01580   0.00000  -0.02930  -0.02963   1.91175
    A4        1.91045   0.00968   0.00000   0.01897   0.01891   1.92936
    A5        1.85345  -0.00064   0.00000   0.00038   0.00032   1.85378
    A6        1.92908  -0.01662   0.00000  -0.03085  -0.03119   1.89790
    A7        1.80447   0.03531   0.00000   0.05173   0.05173   1.85620
    A8        2.23936  -0.01257   0.00000  -0.01669  -0.01670   2.22266
    A9        2.23936  -0.02274   0.00000  -0.03504  -0.03504   2.20432
   A10        1.80447  -0.01565   0.00000  -0.02095  -0.02095   1.78352
   A11        1.94137   0.00096   0.00000   0.00194   0.00194   1.94331
   A12        1.85345  -0.00341   0.00000  -0.00647  -0.00647   1.84698
   A13        1.92908   0.00134   0.00000   0.00253   0.00253   1.93162
   A14        1.90408   0.00087   0.00000   0.00136   0.00136   1.90544
   A15        1.92384   0.00000   0.00000   0.00057   0.00056   1.92440
   A16        1.91045   0.00013   0.00000  -0.00019  -0.00019   1.91026
    D1        1.11666  -0.00254   0.00000  -0.00725  -0.00702   1.10963
    D2       -2.02494  -0.00229   0.00000  -0.00613  -0.00590  -2.03084
    D3       -3.09699  -0.00004   0.00000  -0.00032  -0.00033  -3.09732
    D4        0.04460   0.00020   0.00000   0.00079   0.00079   0.04539
    D5       -1.02645   0.00225   0.00000   0.00604   0.00582  -1.02063
    D6        2.11515   0.00249   0.00000   0.00716   0.00693   2.12208
    D7       -1.52140  -0.00117   0.00000  -0.00541  -0.00541  -1.52681
    D8        1.62019  -0.00141   0.00000  -0.00652  -0.00652   1.61368
    D9        1.11674   0.00014   0.00000  -0.00092  -0.00092   1.11583
   D10       -3.09691  -0.00035   0.00000  -0.00212  -0.00212  -3.09903
   D11       -1.02636  -0.00148   0.00000  -0.00478  -0.00478  -1.03114
         Item               Value     Threshold  Converged?
 Maximum Force            0.106681     0.000450     NO 
 RMS     Force            0.025372     0.000300     NO 
 Maximum Displacement     0.145998     0.001800     NO 
 RMS     Displacement     0.076494     0.001200     NO 
 Predicted change in Energy=-3.978903D-02
 GradGradGradGradGradGradGradGradGradGradGradGradGradGradGradGradGradGrad

                          Input orientation:                          
 ---------------------------------------------------------------------
 Center     Atomic      Atomic             Coordinates (Angstroms)
 Number     Number       Type             X           Y           Z
 ---------------------------------------------------------------------
      1          6           0        1.797216    0.768635   -0.353122
      2          1           0        1.321484    1.729780   -0.235203
      3          1           0        2.763331    0.768220    0.134230
      4          1           0        1.897967    0.502873   -1.393151
      5          7           0        0.872080   -0.422344    0.427154
      6         16           0       -0.835992   -0.481774   -0.498024
      7          6           0       -1.786697    0.781791    0.374957
      8          1           0       -1.352028    1.762054    0.243070
      9          1           0       -2.774940    0.767878   -0.069674
     10          1           0       -1.861764    0.544371    1.425489
     11          1           0        1.141606   -0.984164    1.206185
 ---------------------------------------------------------------------
                    Distance matrix (angstroms):
                    1          2          3          4          5
     1  C    0.000000
     2  H    1.078901   0.000000
     3  H    1.082077   1.772005   0.000000
     4  H    1.078165   1.782829   1.775431   0.000000
     5  N    1.697980   2.296153   2.253903   2.285165   0.000000
     6  S    2.918613   3.100767   3.862299   3.040611   1.943449
     7  C    3.657144   3.306322   4.556412   4.096431   2.919205
     8  H    3.355602   2.716147   4.235060   3.850354   3.122841
     9  H    4.580934   4.211099   5.542024   4.863937   3.868362
    10  H    4.074542   3.781027   4.807179   4.699153   3.066776
    11  H    2.435891   3.078222   2.617237   3.088673   0.997585
                    6          7          8          9         10
     6  S    0.000000
     7  C    1.806248   0.000000
     8  H    2.418735   1.080392   0.000000
     9  H    2.346196   1.083751   1.763767   0.000000
    10  H    2.409375   1.079639   1.772202   1.766171   0.000000
    11  H    2.658499   3.519161   3.832429   4.476249   3.377091
                   11
    11  H    0.000000
 Stoichiometry    C2H7NS
 Framework group  C1[X(C2H7NS)]
 Deg. of freedom    27
 Full point group                 C1      NOp   1
 Largest Abelian subgroup         C1      NOp   1
 Largest concise Abelian subgroup C1      NOp   1
                         Standard orientation:                         
 ---------------------------------------------------------------------
 Center     Atomic      Atomic             Coordinates (Angstroms)
 Number     Number       Type             X           Y           Z
 ---------------------------------------------------------------------
      1          6           0        1.981912    0.527595   -0.314289
      2          1           0        1.548323    1.507092   -0.443185
      3          1           0        2.925261    0.603256    0.210362
      4          1           0        2.113974    0.026700   -1.259859
      5          7           0        0.968232   -0.417422    0.666799
      6         16           0       -0.699774   -0.624288   -0.308884
      7          6           0       -1.624978    0.840218    0.202732
      8          1           0       -1.138490    1.747260   -0.125673
      9          1           0       -2.592918    0.761246   -0.278280
     10          1           0       -1.756034    0.853175    1.274309
     11          1           0        1.177034   -0.795048    1.566229
 ---------------------------------------------------------------------
 Rotational constants (GHZ):      9.9047192      3.3109450      2.9746210
 Standard basis: 6-311+G(2df,p) (5D, 7F)
 There are   186 symmetry adapted basis functions of A   symmetry.
 Integral buffers will be    131072 words long.
 Raffenetti 1 integral format.
 Two-electron integral symmetry is turned on.
   186 basis functions,   278 primitive gaussians,   206 cartesian basis functions
    21 alpha electrons       21 beta electrons
       nuclear repulsion energy       163.9850049389 Hartrees.
 NAtoms=   11 NActive=   11 NUniq=   11 SFac= 7.50D-01 NAtFMM=   80 NAOKFM=F Big=F
 One-electron integrals computed using PRISM.
 NBasis=   186 RedAO= T  NBF=   186
 NBsUse=   186 1.00D-06 NBFU=   186
 Initial guess read from the read-write file.
 B after Tr=     0.000000    0.000000    0.000000
         Rot=    1.000000    0.000000    0.000000    0.000000 Ang=   0.00 deg.
 Initial guess orbital symmetries:
       Occupied  (A) (A) (A) (A) (A) (A) (A) (A) (A) (A) (A) (A)
                 (A) (A) (A) (A) (A) (A) (A) (A) (A)
       Virtual   (A) (A) (A) (A) (A) (A) (A) (A) (A) (A) (A) (A)
                 (A) (A) (A) (A) (A) (A) (A) (A) (A) (A) (A) (A)
                 (A) (A) (A) (A) (A) (A) (A) (A) (A) (A) (A) (A)
                 (A) (A) (A) (A) (A) (A) (A) (A) (A) (A) (A) (A)
                 (A) (A) (A) (A) (A) (A) (A) (A) (A) (A) (A) (A)
                 (A) (A) (A) (A) (A) (A) (A) (A) (A) (A) (A) (A)
                 (A) (A) (A) (A) (A) (A) (A) (A) (A) (A) (A) (A)
                 (A) (A) (A) (A) (A) (A) (A) (A) (A) (A) (A) (A)
                 (A) (A) (A) (A) (A) (A) (A) (A) (A) (A) (A) (A)
                 (A) (A) (A) (A) (A) (A) (A) (A) (A) (A) (A) (A)
                 (A) (A) (A) (A) (A) (A) (A) (A) (A) (A) (A) (A)
                 (A) (A) (A) (A) (A) (A) (A) (A) (A) (A) (A) (A)
                 (A) (A) (A) (A) (A) (A) (A) (A) (A) (A) (A) (A)
                 (A) (A) (A) (A) (A) (A) (A) (A) (A)
 Harris functional with IExCor=  205 diagonalized for initial guess.
 ExpMin= 4.05D-02 ExpMax= 9.34D+04 ExpMxC= 3.17D+03 IAcc=2 IRadAn=         0 AccDes= 0.00D+00
 HarFok:  IExCor=  205 AccDes= 0.00D+00 IRadAn=         0 IDoV= 1
 ScaDFX=  1.000000  1.000000  1.000000  1.000000
 FoFCou: FMM=F IPFlag=           0 FMFlag=      100000 FMFlg1=           0
         NFxFlg=           0 DoJE=T BraDBF=F KetDBF=T FulRan=T
         Omega=  0.000000  0.000000  1.000000  0.000000  0.000000 ICntrl=     500 IOpCl=  0
         NMat0=    1 NMatS0=    1 NMatT0=    0 NMatD0=    1 NMtDS0=    0 NMtDT0=    0
         I1Cent=           4 NGrid=           0.
 Petite list used in FoFCou.
 Requested convergence on RMS density matrix=1.00D-08 within 128 cycles.
 Requested convergence on MAX density matrix=1.00D-06.
 Requested convergence on             energy=1.00D-06.
 No special actions if energy rises.
 Keep R1 ints in memory in canonical form, NReq=231886576.
 SCF Done:  E(RHF) =  -531.750315792     A.U. after   13 cycles
             Convg  =    0.7379D-08             -V/T =  2.0013
 Calling FoFJK, ICntrl=      2127 FMM=F ISym2X=0 I1Cent= 0 IOpClX= 0 NMat=1 NMatS=1 NMatT=0.
 ***** Axes restored to original set *****
 -------------------------------------------------------------------
 Center     Atomic                   Forces (Hartrees/Bohr)
 Number     Number              X              Y              Z
 -------------------------------------------------------------------
      1        6          -0.028277513   -0.061097779    0.049932949
      2        1          -0.003816318   -0.003666462    0.002231055
      3        1          -0.000910138   -0.000113150   -0.000286837
      4        1          -0.003853808   -0.004024539    0.002327430
      5        7          -0.031961120    0.076663066   -0.100657472
      6       16           0.070634380   -0.007464542    0.050598728
      7        6           0.004746966   -0.002201935    0.000500191
      8        1          -0.000012585    0.000176166    0.000284140
      9        1          -0.000410555   -0.000196743   -0.000481723
     10        1          -0.000664979    0.000013493   -0.000113826
     11        1          -0.005474330    0.001912425   -0.004334635
 -------------------------------------------------------------------
 Cartesian Forces:  Max     0.100657472 RMS     0.031048894

 GradGradGradGradGradGradGradGradGradGradGradGradGradGradGradGradGradGrad
 Berny optimization.
 Using GEDIIS/GDIIS optimizer.
 Internal  Forces:  Max     0.093318943 RMS     0.022489339
 Search for a local minimum.
 Step number   2 out of a maximum of   47
 All quantities printed in internal units (Hartrees-Bohrs-Radians)
 Mixed Optimization -- RFO/linear search
 Update second derivatives using D2CorX and points    1    2
 DE= -4.38D-02 DEPred=-3.98D-02 R= 1.10D+00
 SS=  1.41D+00  RLast= 3.00D-01 DXNew= 5.0454D-01 8.9999D-01
 Trust test= 1.10D+00 RLast= 3.00D-01 DXMaxT set to 5.05D-01
 Use linear search instead of GDIIS.
 Linear search step of   0.600 exceeds DXMaxT=   0.505 but not scaled.
 Quartic linear search produced a step of  2.00000.
 Iteration  1 RMS(Cart)=  0.08856949 RMS(Int)=  0.04907150
 Iteration  2 RMS(Cart)=  0.07938332 RMS(Int)=  0.00515557
 Iteration  3 RMS(Cart)=  0.00703345 RMS(Int)=  0.00096044
 Iteration  4 RMS(Cart)=  0.00000671 RMS(Int)=  0.00096043
 Iteration  5 RMS(Cart)=  0.00000001 RMS(Int)=  0.00096043
 Variable       Old X    -DE/DX   Delta X   Delta X   Delta X     New X
                                 (Linear)    (Quad)   (Total)
    R1        2.03883  -0.00134  -0.00556   0.00000  -0.00556   2.03327
    R2        2.04483  -0.00094  -0.00471   0.00000  -0.00471   2.04012
    R3        2.03744  -0.00161  -0.00623   0.00000  -0.00623   2.03120
    R4        3.20872  -0.09332  -0.42436   0.00000  -0.42436   2.78435
    R5        3.67259  -0.08918  -0.38415   0.00000  -0.38415   3.28844
    R6        1.88516  -0.00594  -0.00913   0.00000  -0.00913   1.87603
    R7        3.41331  -0.00338  -0.01517   0.00000  -0.01517   3.39815
    R8        2.04165   0.00012   0.00008   0.00000   0.00008   2.04172
    R9        2.04799   0.00057   0.00161   0.00000   0.00161   2.04961
   R10        2.04022  -0.00007  -0.00066   0.00000  -0.00066   2.03957
    A1        1.92283   0.00317   0.03749   0.00000   0.03693   1.95976
    A2        1.94575   0.00527   0.04381   0.00000   0.03977   1.98551
    A3        1.91175  -0.00723  -0.05925   0.00000  -0.06120   1.85055
    A4        1.92936   0.00329   0.03782   0.00000   0.03721   1.96656
    A5        1.85378   0.00266   0.00065   0.00000   0.00016   1.85394
    A6        1.89790  -0.00762  -0.06237   0.00000  -0.06437   1.83352
    A7        1.85620   0.03404   0.10346   0.00000   0.10346   1.95966
    A8        2.22266  -0.01316  -0.03339   0.00000  -0.03339   2.18927
    A9        2.20432  -0.02088  -0.07007   0.00000  -0.07007   2.13425
   A10        1.78352  -0.00735  -0.04191   0.00000  -0.04191   1.74161
   A11        1.94331   0.00048   0.00388   0.00000   0.00386   1.94717
   A12        1.84698  -0.00077  -0.01294   0.00000  -0.01294   1.83404
   A13        1.93162   0.00055   0.00506   0.00000   0.00505   1.93666
   A14        1.90544   0.00006   0.00272   0.00000   0.00272   1.90816
   A15        1.92440  -0.00007   0.00112   0.00000   0.00109   1.92549
   A16        1.91026  -0.00028  -0.00038   0.00000  -0.00038   1.90988
    D1        1.10963  -0.00141  -0.01405   0.00000  -0.01253   1.09710
    D2       -2.03084  -0.00144  -0.01181   0.00000  -0.01028  -2.04112
    D3       -3.09732   0.00004  -0.00065   0.00000  -0.00069  -3.09800
    D4        0.04539   0.00001   0.00158   0.00000   0.00157   0.04696
    D5       -1.02063   0.00141   0.01163   0.00000   0.01013  -1.01050
    D6        2.12208   0.00138   0.01387   0.00000   0.01238   2.13446
    D7       -1.52681  -0.00100  -0.01083   0.00000  -0.01085  -1.53767
    D8        1.61368  -0.00096  -0.01303   0.00000  -0.01300   1.60068
    D9        1.11583  -0.00028  -0.00183   0.00000  -0.00181   1.11402
   D10       -3.09903  -0.00042  -0.00424   0.00000  -0.00424  -3.10327
   D11       -1.03114  -0.00091  -0.00956   0.00000  -0.00959  -1.04073
         Item               Value     Threshold  Converged?
 Maximum Force            0.093319     0.000450     NO 
 RMS     Force            0.022489     0.000300     NO 
 Maximum Displacement     0.314084     0.001800     NO 
 RMS     Displacement     0.159595     0.001200     NO 
 Predicted change in Energy=-7.023017D-02
 GradGradGradGradGradGradGradGradGradGradGradGradGradGradGradGradGradGrad

                          Input orientation:                          
 ---------------------------------------------------------------------
 Center     Atomic      Atomic             Coordinates (Angstroms)
 Number     Number       Type             X           Y           Z
 ---------------------------------------------------------------------
      1          6           0        1.683750    0.731652   -0.309420
      2          1           0        1.155278    1.662332   -0.198764
      3          1           0        2.612249    0.720090    0.241266
      4          1           0        1.804138    0.420807   -1.331290
      5          7           0        0.827656   -0.297924    0.305424
      6         16           0       -0.698959   -0.461813   -0.513578
      7          6           0       -1.656034    0.775521    0.373331
      8          1           0       -1.259699    1.768915    0.220282
      9          1           0       -2.653077    0.717681   -0.049668
     10          1           0       -1.699465    0.547556    1.427378
     11          1           0        1.066426   -0.847498    1.096952
 ---------------------------------------------------------------------
                    Distance matrix (angstroms):
                    1          2          3          4          5
     1  C    0.000000
     2  H    1.075961   0.000000
     3  H    1.079583   1.790030   0.000000
     4  H    1.074865   1.801394   1.793194   0.000000
     5  N    1.473417   2.050401   2.055538   2.036890   0.000000
     6  S    2.672703   2.837128   3.595939   2.777258   1.740166
     7  C    3.409140   3.002866   4.270685   3.873545   2.706588
     8  H    3.165500   2.453380   4.011540   3.689426   2.938728
     9  H    4.344621   3.926597   5.273357   4.647306   3.643219
    10  H    3.807427   3.469384   4.475210   4.461115   2.891360
    11  H    2.202882   2.825955   2.362011   2.837107   0.992754
                    6          7          8          9         10
     6  S    0.000000
     7  C    1.798221   0.000000
     8  H    2.414359   1.080433   0.000000
     9  H    2.329162   1.084605   1.766201   0.000000
    10  H    2.405650   1.079291   1.772623   1.766348   0.000000
    11  H    2.420567   3.251094   3.609020   4.195143   3.115367
                   11
    11  H    0.000000
 Stoichiometry    C2H7NS
 Framework group  C1[X(C2H7NS)]
 Deg. of freedom    27
 Full point group                 C1      NOp   1
 Largest Abelian subgroup         C1      NOp   1
 Largest concise Abelian subgroup C1      NOp   1
                         Standard orientation:                         
 ---------------------------------------------------------------------
 Center     Atomic      Atomic             Coordinates (Angstroms)
 Number     Number       Type             X           Y           Z
 ---------------------------------------------------------------------
      1          6           0        1.814715    0.470800   -0.312986
      2          1           0        1.317666    1.384459   -0.588417
      3          1           0        2.712721    0.649611    0.258949
      4          1           0        1.975046   -0.200430   -1.137049
      5          7           0        0.889151   -0.240902    0.585773
      6         16           0       -0.598818   -0.672393   -0.206654
      7          6           0       -1.551394    0.822282    0.096898
      8          1           0       -1.109637    1.680255   -0.388973
      9          1           0       -2.527011    0.627815   -0.335214
     10          1           0       -1.657407    1.004284    1.155438
     11          1           0        1.065734   -0.459883    1.537837
 ---------------------------------------------------------------------
 Rotational constants (GHZ):     11.0531615      3.9241649      3.4086894
 Standard basis: 6-311+G(2df,p) (5D, 7F)
 There are   186 symmetry adapted basis functions of A   symmetry.
 Integral buffers will be    131072 words long.
 Raffenetti 1 integral format.
 Two-electron integral symmetry is turned on.
   186 basis functions,   278 primitive gaussians,   206 cartesian basis functions
    21 alpha electrons       21 beta electrons
       nuclear repulsion energy       174.7765224056 Hartrees.
 NAtoms=   11 NActive=   11 NUniq=   11 SFac= 7.50D-01 NAtFMM=   80 NAOKFM=F Big=F
 One-electron integrals computed using PRISM.
 NBasis=   186 RedAO= T  NBF=   186
 NBsUse=   186 1.00D-06 NBFU=   186
 Initial guess read from the read-write file.
 B after Tr=     0.000000    0.000000    0.000000
         Rot=    1.000000    0.000000    0.000000    0.000000 Ang=   0.00 deg.
 Initial guess orbital symmetries:
       Occupied  (A) (A) (A) (A) (A) (A) (A) (A) (A) (A) (A) (A)
                 (A) (A) (A) (A) (A) (A) (A) (A) (A)
       Virtual   (A) (A) (A) (A) (A) (A) (A) (A) (A) (A) (A) (A)
                 (A) (A) (A) (A) (A) (A) (A) (A) (A) (A) (A) (A)
                 (A) (A) (A) (A) (A) (A) (A) (A) (A) (A) (A) (A)
                 (A) (A) (A) (A) (A) (A) (A) (A) (A) (A) (A) (A)
                 (A) (A) (A) (A) (A) (A) (A) (A) (A) (A) (A) (A)
                 (A) (A) (A) (A) (A) (A) (A) (A) (A) (A) (A) (A)
                 (A) (A) (A) (A) (A) (A) (A) (A) (A) (A) (A) (A)
                 (A) (A) (A) (A) (A) (A) (A) (A) (A) (A) (A) (A)
                 (A) (A) (A) (A) (A) (A) (A) (A) (A) (A) (A) (A)
                 (A) (A) (A) (A) (A) (A) (A) (A) (A) (A) (A) (A)
                 (A) (A) (A) (A) (A) (A) (A) (A) (A) (A) (A) (A)
                 (A) (A) (A) (A) (A) (A) (A) (A) (A) (A) (A) (A)
                 (A) (A) (A) (A) (A) (A) (A) (A) (A) (A) (A) (A)
                 (A) (A) (A) (A) (A) (A) (A) (A) (A)
 Harris functional with IExCor=  205 diagonalized for initial guess.
 ExpMin= 4.05D-02 ExpMax= 9.34D+04 ExpMxC= 3.17D+03 IAcc=2 IRadAn=         0 AccDes= 0.00D+00
 HarFok:  IExCor=  205 AccDes= 0.00D+00 IRadAn=         0 IDoV= 1
 ScaDFX=  1.000000  1.000000  1.000000  1.000000
 FoFCou: FMM=F IPFlag=           0 FMFlag=      100000 FMFlg1=           0
         NFxFlg=           0 DoJE=T BraDBF=F KetDBF=T FulRan=T
         Omega=  0.000000  0.000000  1.000000  0.000000  0.000000 ICntrl=     500 IOpCl=  0
         NMat0=    1 NMatS0=    1 NMatT0=    0 NMatD0=    1 NMtDS0=    0 NMtDT0=    0
         I1Cent=           4 NGrid=           0.
 Petite list used in FoFCou.
 Requested convergence on RMS density matrix=1.00D-08 within 128 cycles.
 Requested convergence on MAX density matrix=1.00D-06.
 Requested convergence on             energy=1.00D-06.
 No special actions if energy rises.
 Keep R1 ints in memory in canonical form, NReq=231886576.
 SCF Done:  E(RHF) =  -531.805306180     A.U. after   13 cycles
             Convg  =    0.1859D-08             -V/T =  2.0003
 Calling FoFJK, ICntrl=      2127 FMM=F ISym2X=0 I1Cent= 0 IOpClX= 0 NMat=1 NMatS=1 NMatT=0.
 ***** Axes restored to original set *****
 -------------------------------------------------------------------
 Center     Atomic                   Forces (Hartrees/Bohr)
 Number     Number              X              Y              Z
 -------------------------------------------------------------------
      1        6          -0.015918139   -0.035418064    0.028851333
      2        1           0.009188909    0.010622953   -0.007071742
      3        1           0.005678034    0.007704645   -0.004875399
      4        1           0.008923961    0.011777929   -0.006361265
      5        7          -0.032402471    0.006909024   -0.037840211
      6       16           0.034304175   -0.003965146    0.033907470
      7        6          -0.006290420   -0.002287532   -0.005477076
      8        1          -0.000139060    0.000448538    0.000058814
      9        1          -0.001401306    0.003089425    0.001851599
     10        1          -0.000084150   -0.000709302    0.000510095
     11        1          -0.001859535    0.001827531   -0.003553617
 -------------------------------------------------------------------
 Cartesian Forces:  Max     0.037840211 RMS     0.015515018

 GradGradGradGradGradGradGradGradGradGradGradGradGradGradGradGradGradGrad
 Berny optimization.
 Using GEDIIS/GDIIS optimizer.
 Internal  Forces:  Max     0.037348160 RMS     0.011476324
 Search for a local minimum.
 Step number   3 out of a maximum of   47
 All quantities printed in internal units (Hartrees-Bohrs-Radians)
 Mixed Optimization -- RFO/linear search
 Update second derivatives using D2CorX and points    2    3
 Use linear search instead of GDIIS.
     Eigenvalues ---    0.00230   0.00230   0.00230   0.00235   0.07924
     Eigenvalues ---    0.08004   0.09560   0.10336   0.10928   0.14441
     Eigenvalues ---    0.15987   0.16000   0.16000   0.16000   0.16000
     Eigenvalues ---    0.16000   0.19412   0.23242   0.25310   0.29124
     Eigenvalues ---    0.35595   0.35614   0.35949   0.35979   0.36017
     Eigenvalues ---    0.36170   0.476621000.000001000.000001000.00000
     Eigenvalues --- 1000.000001000.000001000.000001000.000001000.00000
     Eigenvalues --- 1000.000001000.00000
 RFO step:  Lambda=-2.45932249D-02 EMin= 2.29999995D-03
 Quartic linear search produced a step of  0.13849.
 Iteration  1 RMS(Cart)=  0.11655085 RMS(Int)=  0.01787774
 Iteration  2 RMS(Cart)=  0.02287134 RMS(Int)=  0.00204399
 Iteration  3 RMS(Cart)=  0.00009236 RMS(Int)=  0.00204120
 Iteration  4 RMS(Cart)=  0.00000031 RMS(Int)=  0.00204120
 Variable       Old X    -DE/DX   Delta X   Delta X   Delta X     New X
                                 (Linear)    (Quad)   (Total)
    R1        2.03327   0.00395  -0.00077   0.01086   0.01009   2.04336
    R2        2.04012   0.00231  -0.00065   0.00624   0.00559   2.04570
    R3        2.03120   0.00364  -0.00086   0.00992   0.00906   2.04026
    R4        2.78435  -0.00354  -0.05877   0.00680  -0.05196   2.73239
    R5        3.28844  -0.03735  -0.05320  -0.22739  -0.28059   3.00785
    R6        1.87603  -0.00429  -0.00126  -0.00985  -0.01111   1.86492
    R7        3.39815   0.00308  -0.00210   0.01148   0.00938   3.40752
    R8        2.04172   0.00035   0.00001   0.00100   0.00101   2.04273
    R9        2.04961   0.00040   0.00022   0.00127   0.00149   2.05110
   R10        2.03957   0.00065  -0.00009   0.00179   0.00170   2.04126
    A1        1.95976  -0.01312   0.00511  -0.08126  -0.07945   1.88031
    A2        1.98551  -0.01543   0.00551  -0.08475  -0.08621   1.89930
    A3        1.85055   0.01876  -0.00847   0.11244   0.09853   1.94908
    A4        1.96656  -0.01302   0.00515  -0.07973  -0.07821   1.88835
    A5        1.85394   0.01036   0.00002   0.05761   0.05404   1.90797
    A6        1.83352   0.01962  -0.00891   0.11803   0.10347   1.93700
    A7        1.95966   0.03223   0.01433   0.14422   0.15853   2.11819
    A8        2.18927  -0.01518  -0.00462  -0.06702  -0.07167   2.11760
    A9        2.13425  -0.01704  -0.00970  -0.07717  -0.08689   2.04736
   A10        1.74161   0.01923  -0.00580   0.07472   0.06892   1.81053
   A11        1.94717  -0.00040   0.00053  -0.00349  -0.00303   1.94414
   A12        1.83404   0.00605  -0.00179   0.03773   0.03590   1.86994
   A13        1.93666  -0.00169   0.00070  -0.01112  -0.01046   1.92620
   A14        1.90816  -0.00208   0.00038  -0.01013  -0.00983   1.89833
   A15        1.92549  -0.00021   0.00015  -0.00486  -0.00479   1.92071
   A16        1.90988  -0.00149  -0.00005  -0.00658  -0.00664   1.90325
    D1        1.09710   0.00069  -0.00174   0.01331   0.01297   1.11007
    D2       -2.04112   0.00044  -0.00142   0.00202   0.00199  -2.03913
    D3       -3.09800   0.00003  -0.00010   0.00416   0.00393  -3.09407
    D4        0.04696  -0.00021   0.00022  -0.00712  -0.00705   0.03991
    D5       -1.01050  -0.00039   0.00140  -0.00221  -0.00205  -1.01255
    D6        2.13446  -0.00063   0.00172  -0.01349  -0.01303   2.12143
    D7       -1.53767  -0.00040  -0.00150  -0.00483  -0.00633  -1.54399
    D8        1.60068  -0.00016  -0.00180   0.00605   0.00424   1.60492
    D9        1.11402  -0.00141  -0.00025  -0.02369  -0.02395   1.09007
   D10       -3.10327  -0.00050  -0.00059  -0.01516  -0.01569  -3.11895
   D11       -1.04073   0.00038  -0.00133  -0.00681  -0.00819  -1.04892
         Item               Value     Threshold  Converged?
 Maximum Force            0.037348     0.000450     NO 
 RMS     Force            0.011476     0.000300     NO 
 Maximum Displacement     0.342281     0.001800     NO 
 RMS     Displacement     0.110993     0.001200     NO 
 Predicted change in Energy=-1.711851D-02
 GradGradGradGradGradGradGradGradGradGradGradGradGradGradGradGradGradGrad

                          Input orientation:                          
 ---------------------------------------------------------------------
 Center     Atomic      Atomic             Coordinates (Angstroms)
 Number     Number       Type             X           Y           Z
 ---------------------------------------------------------------------
      1          6           0        1.708888    0.696671   -0.306700
      2          1           0        1.336406    1.709819   -0.243440
      3          1           0        2.630031    0.648037    0.259887
      4          1           0        1.935386    0.472594   -1.338277
      5          7           0        0.763766   -0.254524    0.234272
      6         16           0       -0.668345   -0.466973   -0.427081
      7          6           0       -1.706301    0.755460    0.397406
      8          1           0       -1.364924    1.761501    0.197820
      9          1           0       -2.710296    0.642278    0.000838
     10          1           0       -1.725509    0.575358    1.462302
     11          1           0        0.983163   -0.802902    1.024885
 ---------------------------------------------------------------------
                    Distance matrix (angstroms):
                    1          2          3          4          5
     1  C    0.000000
     2  H    1.081302   0.000000
     3  H    1.082539   1.747623   0.000000
     4  H    1.079659   1.757319   1.751411   0.000000
     5  N    1.445918   2.101136   2.073215   2.091484   0.000000
     6  S    2.649489   2.964991   3.548867   2.914186   1.591686
     7  C    3.487512   3.252622   4.339842   4.044069   2.673558
     8  H    3.291918   2.737620   4.147688   3.861725   2.932065
     9  H    4.430206   4.192268   5.346609   4.837807   3.595532
    10  H    3.865122   3.684003   4.519050   4.610418   2.897111
    11  H    2.132724   2.836758   2.324354   2.849237   0.986874
                    6          7          8          9         10
     6  S    0.000000
     7  C    1.803184   0.000000
     8  H    2.416985   1.080967   0.000000
     9  H    2.362861   1.085395   1.761104   0.000000
    10  H    2.402877   1.080189   1.770839   1.763565   0.000000
    11  H    2.224529   3.171031   3.574032   4.096200   3.070479
                   11
    11  H    0.000000
 Stoichiometry    C2H7NS
 Framework group  C1[X(C2H7NS)]
 Deg. of freedom    27
 Full point group                 C1      NOp   1
 Largest Abelian subgroup         C1      NOp   1
 Largest concise Abelian subgroup C1      NOp   1
                         Standard orientation:                         
 ---------------------------------------------------------------------
 Center     Atomic      Atomic             Coordinates (Angstroms)
 Number     Number       Type             X           Y           Z
 ---------------------------------------------------------------------
      1          6           0        1.845485    0.467555   -0.228978
      2          1           0        1.509870    1.449083   -0.534228
      3          1           0        2.709357    0.598454    0.410148
      4          1           0        2.154459   -0.082926   -1.104859
      5          7           0        0.818145   -0.246662    0.495691
      6         16           0       -0.556210   -0.650791   -0.198060
      7          6           0       -1.613977    0.782839    0.079976
      8          1           0       -1.215889    1.665608   -0.400373
      9          1           0       -2.582064    0.555212   -0.354852
     10          1           0       -1.735908    0.960355    1.138480
     11          1           0        0.943471   -0.508852    1.438809
 ---------------------------------------------------------------------
 Rotational constants (GHZ):     12.1516231      3.9287233      3.3963206
 Standard basis: 6-311+G(2df,p) (5D, 7F)
 There are   186 symmetry adapted basis functions of A   symmetry.
 Integral buffers will be    131072 words long.
 Raffenetti 1 integral format.
 Two-electron integral symmetry is turned on.
   186 basis functions,   278 primitive gaussians,   206 cartesian basis functions
    21 alpha electrons       21 beta electrons
       nuclear repulsion energy       178.0592756589 Hartrees.
 NAtoms=   11 NActive=   11 NUniq=   11 SFac= 7.50D-01 NAtFMM=   80 NAOKFM=F Big=F
 One-electron integrals computed using PRISM.
 NBasis=   186 RedAO= T  NBF=   186
 NBsUse=   186 1.00D-06 NBFU=   186
 Initial guess read from the read-write file.
 B after Tr=     0.000000    0.000000    0.000000
         Rot=    1.000000    0.000000    0.000000    0.000000 Ang=   0.00 deg.
 Initial guess orbital symmetries:
       Occupied  (A) (A) (A) (A) (A) (A) (A) (A) (A) (A) (A) (A)
                 (A) (A) (A) (A) (A) (A) (A) (A) (A)
       Virtual   (A) (A) (A) (A) (A) (A) (A) (A) (A) (A) (A) (A)
                 (A) (A) (A) (A) (A) (A) (A) (A) (A) (A) (A) (A)
                 (A) (A) (A) (A) (A) (A) (A) (A) (A) (A) (A) (A)
                 (A) (A) (A) (A) (A) (A) (A) (A) (A) (A) (A) (A)
                 (A) (A) (A) (A) (A) (A) (A) (A) (A) (A) (A) (A)
                 (A) (A) (A) (A) (A) (A) (A) (A) (A) (A) (A) (A)
                 (A) (A) (A) (A) (A) (A) (A) (A) (A) (A) (A) (A)
                 (A) (A) (A) (A) (A) (A) (A) (A) (A) (A) (A) (A)
                 (A) (A) (A) (A) (A) (A) (A) (A) (A) (A) (A) (A)
                 (A) (A) (A) (A) (A) (A) (A) (A) (A) (A) (A) (A)
                 (A) (A) (A) (A) (A) (A) (A) (A) (A) (A) (A) (A)
                 (A) (A) (A) (A) (A) (A) (A) (A) (A) (A) (A) (A)
                 (A) (A) (A) (A) (A) (A) (A) (A) (A) (A) (A) (A)
                 (A) (A) (A) (A) (A) (A) (A) (A) (A)
 Harris functional with IExCor=  205 diagonalized for initial guess.
 ExpMin= 4.05D-02 ExpMax= 9.34D+04 ExpMxC= 3.17D+03 IAcc=2 IRadAn=         0 AccDes= 0.00D+00
 HarFok:  IExCor=  205 AccDes= 0.00D+00 IRadAn=         0 IDoV= 1
 ScaDFX=  1.000000  1.000000  1.000000  1.000000
 FoFCou: FMM=F IPFlag=           0 FMFlag=      100000 FMFlg1=           0
         NFxFlg=           0 DoJE=T BraDBF=F KetDBF=T FulRan=T
         Omega=  0.000000  0.000000  1.000000  0.000000  0.000000 ICntrl=     500 IOpCl=  0
         NMat0=    1 NMatS0=    1 NMatT0=    0 NMatD0=    1 NMtDS0=    0 NMtDT0=    0
         I1Cent=           4 NGrid=           0.
 Petite list used in FoFCou.
 Requested convergence on RMS density matrix=1.00D-08 within 128 cycles.
 Requested convergence on MAX density matrix=1.00D-06.
 Requested convergence on             energy=1.00D-06.
 No special actions if energy rises.
 Keep R1 ints in memory in canonical form, NReq=231886576.
 SCF Done:  E(RHF) =  -531.815100671     A.U. after   13 cycles
             Convg  =    0.1681D-08             -V/T =  1.9997
 Calling FoFJK, ICntrl=      2127 FMM=F ISym2X=0 I1Cent= 0 IOpClX= 0 NMat=1 NMatS=1 NMatT=0.
 ***** Axes restored to original set *****
 -------------------------------------------------------------------
 Center     Atomic                   Forces (Hartrees/Bohr)
 Number     Number              X              Y              Z
 -------------------------------------------------------------------
      1        6           0.003128571   -0.004632928    0.008894500
      2        1          -0.001092816    0.002935129   -0.000450276
      3        1           0.000879828   -0.000322810    0.000611002
      4        1           0.000122465   -0.000227667   -0.003295268
      5        7           0.034950282    0.006588804    0.008661737
      6       16          -0.042623680   -0.007329208   -0.018510511
      7        6          -0.003265293   -0.000047740   -0.001596261
      8        1           0.000229444    0.000927317    0.000143727
      9        1           0.000716538    0.000150403    0.000265410
     10        1          -0.000410640    0.000289855    0.001606021
     11        1           0.007365301    0.001668846    0.003669919
 -------------------------------------------------------------------
 Cartesian Forces:  Max     0.042623680 RMS     0.010693715

 GradGradGradGradGradGradGradGradGradGradGradGradGradGradGradGradGradGrad
 Berny optimization.
 Using GEDIIS/GDIIS optimizer.
 Internal  Forces:  Max     0.049125934 RMS     0.008508481
 Search for a local minimum.
 Step number   4 out of a maximum of   47
 All quantities printed in internal units (Hartrees-Bohrs-Radians)
 Mixed Optimization -- RFO/linear search
 Update second derivatives using D2CorX and points    3    4
 DE= -9.79D-03 DEPred=-1.71D-02 R= 5.72D-01
 SS=  1.41D+00  RLast= 4.13D-01 DXNew= 8.4853D-01 1.2389D+00
 Trust test= 5.72D-01 RLast= 4.13D-01 DXMaxT set to 8.49D-01
 Use linear search instead of GDIIS.
     Eigenvalues ---    0.00230   0.00230   0.00230   0.00235   0.06859
     Eigenvalues ---    0.07148   0.09630   0.10145   0.12146   0.15857
     Eigenvalues ---    0.15993   0.16000   0.16000   0.16000   0.16000
     Eigenvalues ---    0.18802   0.21959   0.25290   0.25744   0.29438
     Eigenvalues ---    0.35592   0.35602   0.35950   0.35966   0.36018
     Eigenvalues ---    0.36086   0.478041000.000001000.000001000.00000
     Eigenvalues --- 1000.000001000.000001000.000001000.000001000.00000
     Eigenvalues --- 1000.000001000.00000
 RFO step:  Lambda=-6.95270260D-03 EMin= 2.29999797D-03
 Quartic linear search produced a step of -0.24700.
 Iteration  1 RMS(Cart)=  0.07676461 RMS(Int)=  0.00123474
 Iteration  2 RMS(Cart)=  0.00190140 RMS(Int)=  0.00034690
 Iteration  3 RMS(Cart)=  0.00000229 RMS(Int)=  0.00034690
 Iteration  4 RMS(Cart)=  0.00000000 RMS(Int)=  0.00034690
 Variable       Old X    -DE/DX   Delta X   Delta X   Delta X     New X
                                 (Linear)    (Quad)   (Total)
    R1        2.04336   0.00310  -0.00249   0.01094   0.00844   2.05181
    R2        2.04570   0.00108  -0.00138   0.00495   0.00357   2.04927
    R3        2.04026   0.00322  -0.00224   0.01073   0.00850   2.04875
    R4        2.73239  -0.00165   0.01284  -0.06266  -0.04982   2.68257
    R5        3.00785   0.04913   0.06930   0.09491   0.16422   3.17207
    R6        1.86492   0.00365   0.00274   0.00074   0.00348   1.86840
    R7        3.40752   0.00266  -0.00232   0.01218   0.00986   3.41738
    R8        2.04273   0.00091  -0.00025   0.00231   0.00207   2.04480
    R9        2.05110  -0.00078  -0.00037  -0.00099  -0.00136   2.04974
   R10        2.04126   0.00154  -0.00042   0.00393   0.00351   2.04478
    A1        1.88031   0.00025   0.01963  -0.03806  -0.01794   1.86237
    A2        1.89930  -0.00057   0.02130  -0.04843  -0.02597   1.87333
    A3        1.94908   0.00034  -0.02434   0.04672   0.02330   1.97238
    A4        1.88835   0.00031   0.01932  -0.03772  -0.01783   1.87053
    A5        1.90797  -0.00019  -0.01335   0.02553   0.01275   1.92073
    A6        1.93700  -0.00013  -0.02556   0.04666   0.02207   1.95906
    A7        2.11819   0.00736  -0.03916   0.09967   0.06045   2.17865
    A8        2.11760  -0.01070   0.01770  -0.07720  -0.05955   2.05805
    A9        2.04736   0.00335   0.02146  -0.02235  -0.00096   2.04641
   A10        1.81053   0.00585  -0.01702   0.04931   0.03229   1.84282
   A11        1.94414   0.00014   0.00075  -0.00099  -0.00023   1.94391
   A12        1.86994  -0.00012  -0.00887   0.01710   0.00823   1.87817
   A13        1.92620   0.00094   0.00258  -0.00083   0.00176   1.92796
   A14        1.89833  -0.00013   0.00243  -0.00559  -0.00315   1.89518
   A15        1.92071  -0.00055   0.00118  -0.00497  -0.00377   1.91693
   A16        1.90325  -0.00028   0.00164  -0.00435  -0.00272   1.90052
    D1        1.11007  -0.00046  -0.00320  -0.00061  -0.00397   1.10610
    D2       -2.03913   0.00001  -0.00049   0.01834   0.01751  -2.02163
    D3       -3.09407  -0.00007  -0.00097  -0.00223  -0.00307  -3.09715
    D4        0.03991   0.00041   0.00174   0.01672   0.01841   0.05831
    D5       -1.01255   0.00012   0.00051  -0.00383  -0.00302  -1.01556
    D6        2.12143   0.00059   0.00322   0.01512   0.01846   2.13990
    D7       -1.54399   0.00044   0.00156   0.01081   0.01264  -1.53135
    D8        1.60492   0.00004  -0.00105  -0.00714  -0.00846   1.59646
    D9        1.09007  -0.00008   0.00592  -0.04942  -0.04351   1.04656
   D10       -3.11895  -0.00024   0.00388  -0.04623  -0.04237   3.12186
   D11       -1.04892  -0.00014   0.00202  -0.04181  -0.03977  -1.08868
         Item               Value     Threshold  Converged?
 Maximum Force            0.049126     0.000450     NO 
 RMS     Force            0.008508     0.000300     NO 
 Maximum Displacement     0.191884     0.001800     NO 
 RMS     Displacement     0.077810     0.001200     NO 
 Predicted change in Energy=-5.020763D-03
 GradGradGradGradGradGradGradGradGradGradGradGradGradGradGradGradGradGrad

                          Input orientation:                          
 ---------------------------------------------------------------------
 Center     Atomic      Atomic             Coordinates (Angstroms)
 Number     Number       Type             X           Y           Z
 ---------------------------------------------------------------------
      1          6           0        1.760264    0.678381   -0.307813
      2          1           0        1.437946    1.713197   -0.243285
      3          1           0        2.687304    0.605268    0.250067
      4          1           0        1.995296    0.477468   -1.346940
      5          7           0        0.805448   -0.233711    0.213286
      6         16           0       -0.734209   -0.471086   -0.411824
      7          6           0       -1.784848    0.752260    0.406649
      8          1           0       -1.445281    1.760177    0.207518
      9          1           0       -2.788305    0.640847    0.010184
     10          1           0       -1.808452    0.577009    1.474150
     11          1           0        1.057101   -0.762490    1.009920
 ---------------------------------------------------------------------
                    Distance matrix (angstroms):
                    1          2          3          4          5
     1  C    0.000000
     2  H    1.085770   0.000000
     3  H    1.084425   1.741205   0.000000
     4  H    1.084154   1.748062   1.745176   0.000000
     5  N    1.419553   2.097370   2.060733   2.087060   0.000000
     6  S    2.748543   3.085086   3.647380   3.037169   1.678586
     7  C    3.617144   3.425232   4.477306   4.176131   2.778338
     8  H    3.422188   2.918635   4.291140   3.987387   3.006893
     9  H    4.559825   4.367537   5.480976   4.975069   3.704208
    10  H    3.990164   3.844426   4.659507   4.736767   3.013224
    11  H    2.075324   2.800819   2.259579   2.823560   0.988717
                    6          7          8          9         10
     6  S    0.000000
     7  C    1.808401   0.000000
     8  H    2.422342   1.082061   0.000000
     9  H    2.373562   1.084676   1.759418   0.000000
    10  H    2.410269   1.082049   1.770914   1.762777   0.000000
    11  H    2.305441   3.276443   3.642748   4.213783   3.197055
                   11
    11  H    0.000000
 Stoichiometry    C2H7NS
 Framework group  C1[X(C2H7NS)]
 Deg. of freedom    27
 Full point group                 C1      NOp   1
 Largest Abelian subgroup         C1      NOp   1
 Largest concise Abelian subgroup C1      NOp   1
                         Standard orientation:                         
 ---------------------------------------------------------------------
 Center     Atomic      Atomic             Coordinates (Angstroms)
 Number     Number       Type             X           Y           Z
 ---------------------------------------------------------------------
      1          6           0        1.916796    0.446550   -0.227772
      2          1           0        1.631622    1.445582   -0.543217
      3          1           0        2.787302    0.557414    0.409336
      4          1           0        2.234436   -0.093255   -1.112704
      5          7           0        0.884045   -0.230123    0.472706
      6         16           0       -0.602660   -0.651101   -0.183142
      7          6           0       -1.671760    0.784347    0.075370
      8          1           0       -1.275961    1.664258   -0.414482
      9          1           0       -2.639943    0.554433   -0.356236
     10          1           0       -1.796494    0.977628    1.132684
     11          1           0        1.043068   -0.462958    1.420367
 ---------------------------------------------------------------------
 Rotational constants (GHZ):     12.4228266      3.6376983      3.1735833
 Standard basis: 6-311+G(2df,p) (5D, 7F)
 There are   186 symmetry adapted basis functions of A   symmetry.
 Integral buffers will be    131072 words long.
 Raffenetti 1 integral format.
 Two-electron integral symmetry is turned on.
   186 basis functions,   278 primitive gaussians,   206 cartesian basis functions
    21 alpha electrons       21 beta electrons
       nuclear repulsion energy       174.3258987224 Hartrees.
 NAtoms=   11 NActive=   11 NUniq=   11 SFac= 7.50D-01 NAtFMM=   80 NAOKFM=F Big=F
 One-electron integrals computed using PRISM.
 NBasis=   186 RedAO= T  NBF=   186
 NBsUse=   186 1.00D-06 NBFU=   186
 Initial guess read from the read-write file.
 B after Tr=     0.000000    0.000000    0.000000
         Rot=    1.000000    0.000000    0.000000    0.000000 Ang=   0.00 deg.
 Initial guess orbital symmetries:
       Occupied  (A) (A) (A) (A) (A) (A) (A) (A) (A) (A) (A) (A)
                 (A) (A) (A) (A) (A) (A) (A) (A) (A)
       Virtual   (A) (A) (A) (A) (A) (A) (A) (A) (A) (A) (A) (A)
                 (A) (A) (A) (A) (A) (A) (A) (A) (A) (A) (A) (A)
                 (A) (A) (A) (A) (A) (A) (A) (A) (A) (A) (A) (A)
                 (A) (A) (A) (A) (A) (A) (A) (A) (A) (A) (A) (A)
                 (A) (A) (A) (A) (A) (A) (A) (A) (A) (A) (A) (A)
                 (A) (A) (A) (A) (A) (A) (A) (A) (A) (A) (A) (A)
                 (A) (A) (A) (A) (A) (A) (A) (A) (A) (A) (A) (A)
                 (A) (A) (A) (A) (A) (A) (A) (A) (A) (A) (A) (A)
                 (A) (A) (A) (A) (A) (A) (A) (A) (A) (A) (A) (A)
                 (A) (A) (A) (A) (A) (A) (A) (A) (A) (A) (A) (A)
                 (A) (A) (A) (A) (A) (A) (A) (A) (A) (A) (A) (A)
                 (A) (A) (A) (A) (A) (A) (A) (A) (A) (A) (A) (A)
                 (A) (A) (A) (A) (A) (A) (A) (A) (A) (A) (A) (A)
                 (A) (A) (A) (A) (A) (A) (A) (A) (A)
 Harris functional with IExCor=  205 diagonalized for initial guess.
 ExpMin= 4.05D-02 ExpMax= 9.34D+04 ExpMxC= 3.17D+03 IAcc=2 IRadAn=         0 AccDes= 0.00D+00
 HarFok:  IExCor=  205 AccDes= 0.00D+00 IRadAn=         0 IDoV= 1
 ScaDFX=  1.000000  1.000000  1.000000  1.000000
 FoFCou: FMM=F IPFlag=           0 FMFlag=      100000 FMFlg1=           0
         NFxFlg=           0 DoJE=T BraDBF=F KetDBF=T FulRan=T
         Omega=  0.000000  0.000000  1.000000  0.000000  0.000000 ICntrl=     500 IOpCl=  0
         NMat0=    1 NMatS0=    1 NMatT0=    0 NMatD0=    1 NMtDS0=    0 NMtDT0=    0
         I1Cent=           4 NGrid=           0.
 Petite list used in FoFCou.
 Requested convergence on RMS density matrix=1.00D-08 within 128 cycles.
 Requested convergence on MAX density matrix=1.00D-06.
 Requested convergence on             energy=1.00D-06.
 No special actions if energy rises.
 Keep R1 ints in memory in canonical form, NReq=231886576.
 SCF Done:  E(RHF) =  -531.817104404     A.U. after   12 cycles
             Convg  =    0.5021D-08             -V/T =  2.0001
 Calling FoFJK, ICntrl=      2127 FMM=F ISym2X=0 I1Cent= 0 IOpClX= 0 NMat=1 NMatS=1 NMatT=0.
 ***** Axes restored to original set *****
 -------------------------------------------------------------------
 Center     Atomic                   Forces (Hartrees/Bohr)
 Number     Number              X              Y              Z
 -------------------------------------------------------------------
      1        6           0.008518524    0.012777760   -0.008177721
      2        1          -0.001440349    0.001479084    0.000442584
      3        1          -0.001272844   -0.002404979    0.001506329
      4        1          -0.000532150   -0.001050555   -0.001814095
      5        7          -0.021354737   -0.011466632    0.003356470
      6       16           0.012344445    0.001014707    0.000788675
      7        6           0.004174385    0.002106375    0.003616650
      8        1           0.000028102   -0.000198214   -0.000054103
      9        1           0.001593506   -0.002130490   -0.001385173
     10        1          -0.000462356    0.000624170    0.000064241
     11        1          -0.001596526   -0.000751226    0.001656142
 -------------------------------------------------------------------
 Cartesian Forces:  Max     0.021354737 RMS     0.005838165

 GradGradGradGradGradGradGradGradGradGradGradGradGradGradGradGradGradGrad
 Berny optimization.
 Using GEDIIS/GDIIS optimizer.
 Internal  Forces:  Max     0.017543751 RMS     0.004545714
 Search for a local minimum.
 Step number   5 out of a maximum of   47
 All quantities printed in internal units (Hartrees-Bohrs-Radians)
 Mixed Optimization -- RFO/linear search
 Update second derivatives using D2CorX and points    3    4    5
 DE= -2.00D-03 DEPred=-5.02D-03 R= 3.99D-01
 Trust test= 3.99D-01 RLast= 2.17D-01 DXMaxT set to 8.49D-01
 Use linear search instead of GDIIS.
     Eigenvalues ---    0.00229   0.00230   0.00230   0.00236   0.06596
     Eigenvalues ---    0.06948   0.09632   0.10084   0.13400   0.15869
     Eigenvalues ---    0.15996   0.16000   0.16000   0.16000   0.17109
     Eigenvalues ---    0.18206   0.22131   0.25293   0.26166   0.35558
     Eigenvalues ---    0.35602   0.35796   0.35934   0.35991   0.36000
     Eigenvalues ---    0.40659   0.478051000.000001000.000001000.00000
     Eigenvalues --- 1000.000001000.000001000.000001000.000001000.00000
     Eigenvalues --- 1000.000001000.00000
 RFO step:  Lambda=-1.05075582D-03 EMin= 2.28598735D-03
 Quartic linear search produced a step of -0.37142.
 Iteration  1 RMS(Cart)=  0.10080554 RMS(Int)=  0.00464862
 Iteration  2 RMS(Cart)=  0.00543325 RMS(Int)=  0.00022862
 Iteration  3 RMS(Cart)=  0.00001832 RMS(Int)=  0.00022822
 Iteration  4 RMS(Cart)=  0.00000000 RMS(Int)=  0.00022822
 Variable       Old X    -DE/DX   Delta X   Delta X   Delta X     New X
                                 (Linear)    (Quad)   (Total)
    R1        2.05181   0.00186  -0.00314   0.00511   0.00198   2.05378
    R2        2.04927  -0.00015  -0.00132   0.00068  -0.00065   2.04862
    R3        2.04875   0.00182  -0.00316   0.00515   0.00199   2.05075
    R4        2.68257   0.01344   0.01851   0.03894   0.05744   2.74001
    R5        3.17207  -0.01754  -0.06099   0.01927  -0.04172   3.13034
    R6        1.86840   0.00133  -0.00129   0.00374   0.00244   1.87085
    R7        3.41738  -0.00181  -0.00366  -0.00085  -0.00451   3.41287
    R8        2.04480  -0.00017  -0.00077   0.00048  -0.00028   2.04451
    R9        2.04974  -0.00075   0.00050  -0.00175  -0.00124   2.04850
   R10        2.04478  -0.00003  -0.00131   0.00119  -0.00012   2.04466
    A1        1.86237   0.00223   0.00666   0.00918   0.01581   1.87818
    A2        1.87333   0.00101   0.00965   0.00427   0.01395   1.88728
    A3        1.97238  -0.00031  -0.00865  -0.00161  -0.01026   1.96212
    A4        1.87053   0.00211   0.00662   0.00779   0.01434   1.88486
    A5        1.92073  -0.00399  -0.00474  -0.01390  -0.01869   1.90204
    A6        1.95906  -0.00067  -0.00820  -0.00421  -0.01243   1.94664
    A7        2.17865  -0.00567  -0.02245  -0.00544  -0.02866   2.14999
    A8        2.05805   0.00446   0.02212  -0.00372   0.01762   2.07567
    A9        2.04641   0.00120   0.00035   0.00823   0.00783   2.05424
   A10        1.84282  -0.01223  -0.01199  -0.01945  -0.03144   1.81138
   A11        1.94391   0.00039   0.00009   0.00202   0.00207   1.94598
   A12        1.87817  -0.00482  -0.00306  -0.01761  -0.02067   1.85750
   A13        1.92796   0.00206  -0.00065   0.00926   0.00860   1.93656
   A14        1.89518   0.00130   0.00117   0.00232   0.00346   1.89865
   A15        1.91693   0.00005   0.00140   0.00177   0.00313   1.92006
   A16        1.90052   0.00094   0.00101   0.00178   0.00280   1.90332
    D1        1.10610   0.00001   0.00147  -0.03413  -0.03275   1.07335
[...]
     11        1          -0.000000353   -0.000000673   -0.000007776
 -------------------------------------------------------------------
 Cartesian Forces:  Max     0.000027868 RMS     0.000009461

 GradGradGradGradGradGradGradGradGradGradGradGradGradGradGradGradGradGrad
 Berny optimization.
 Internal  Forces:  Max     0.000036233 RMS     0.000008113
 Search for a local minimum.
 Step number   1 out of a maximum of    2
 All quantities printed in internal units (Hartrees-Bohrs-Radians)
 Second derivative matrix not updated -- analytic derivatives used.
     Eigenvalues ---    0.00271   0.00490   0.01457   0.02023   0.07175
     Eigenvalues ---    0.07214   0.08717   0.09158   0.12724   0.13098
     Eigenvalues ---    0.13444   0.14919   0.15833   0.18227   0.20209
     Eigenvalues ---    0.22741   0.24354   0.31219   0.34776   0.36165
     Eigenvalues ---    0.36366   0.36432   0.37065   0.37598   0.37968
     Eigenvalues ---    0.40694   0.510621000.000001000.000001000.00000
     Eigenvalues --- 1000.000001000.000001000.000001000.000001000.00000
     Eigenvalues --- 1000.000001000.00000
 Angle between quadratic step and forces=  68.50 degrees.
 Linear search not attempted -- first point.
 Iteration  1 RMS(Cart)=  0.00022999 RMS(Int)=  0.00000003
 Iteration  2 RMS(Cart)=  0.00000003 RMS(Int)=  0.00000000
 Variable       Old X    -DE/DX   Delta X   Delta X   Delta X     New X
                                 (Linear)    (Quad)   (Total)
    R1        2.05730   0.00000   0.00000   0.00001   0.00001   2.05731
    R2        2.04867   0.00000   0.00000  -0.00001  -0.00001   2.04866
    R3        2.04477  -0.00001   0.00000  -0.00002  -0.00002   2.04475
    R4        2.73516   0.00000   0.00000  -0.00001  -0.00001   2.73515
    R5        3.16069  -0.00002   0.00000  -0.00010  -0.00010   3.16060
    R6        1.88318  -0.00001   0.00000  -0.00002  -0.00002   1.88317
    R7        3.41371  -0.00001   0.00000  -0.00007  -0.00007   3.41364
    R8        2.04379   0.00000   0.00000   0.00002   0.00002   2.04381
    R9        2.04807   0.00001   0.00000   0.00003   0.00003   2.04810
   R10        2.04616   0.00000   0.00000  -0.00001  -0.00001   2.04615
    A1        1.88772   0.00000   0.00000  -0.00003  -0.00003   1.88769
    A2        1.89140   0.00000   0.00000   0.00001   0.00001   1.89142
    A3        1.98608   0.00001   0.00000   0.00003   0.00003   1.98612
    A4        1.89016   0.00000   0.00000  -0.00001  -0.00001   1.89015
    A5        1.90015   0.00000   0.00000   0.00001   0.00001   1.90016
    A6        1.90617   0.00000   0.00000  -0.00003  -0.00003   1.90614
    A7        2.08564   0.00000   0.00000   0.00003   0.00003   2.08567
    A8        1.98252   0.00000   0.00000   0.00004   0.00004   1.98256
    A9        1.97366   0.00000   0.00000   0.00006   0.00006   1.97372
   A10        1.83633   0.00004   0.00000   0.00013   0.00013   1.83646
   A11        1.95563   0.00000   0.00000   0.00004   0.00004   1.95567
   A12        1.85188   0.00001   0.00000   0.00001   0.00001   1.85188
   A13        1.94046   0.00001   0.00000   0.00009   0.00009   1.94055
   A14        1.89545  -0.00001   0.00000  -0.00006  -0.00006   1.89538
   A15        1.92012  -0.00001   0.00000  -0.00005  -0.00005   1.92007
   A16        1.89779   0.00000   0.00000  -0.00003  -0.00003   1.89776
    D1        1.17722   0.00000   0.00000   0.00033   0.00033   1.17755
    D2       -1.22452   0.00000   0.00000   0.00014   0.00014  -1.22439
    D3       -2.99923   0.00000   0.00000   0.00033   0.00033  -2.99890
    D4        0.88221   0.00000   0.00000   0.00014   0.00014   0.88235
    D5       -0.93858   0.00000   0.00000   0.00031   0.00031  -0.93827
    D6        2.94287   0.00000   0.00000   0.00012   0.00012   2.94298
    D7       -1.18011   0.00000   0.00000   0.00001   0.00001  -1.18010
    D8        1.22511   0.00000   0.00000   0.00020   0.00020   1.22531
    D9        1.11394   0.00000   0.00000   0.00004   0.00004   1.11398
   D10       -3.10332   0.00000   0.00000   0.00000   0.00000  -3.10332
   D11       -1.04277   0.00000   0.00000   0.00001   0.00001  -1.04276
         Item               Value     Threshold  Converged?
 Maximum Force            0.000036     0.000450     YES
 RMS     Force            0.000008     0.000300     YES
 Maximum Displacement     0.000584     0.001800     YES
 RMS     Displacement     0.000230     0.001200     YES
 Predicted change in Energy=-6.177371D-09
 Optimization completed.
    -- Stationary point found.
                           ----------------------------
                           !   Optimized Parameters   !
                           ! (Angstroms and Degrees)  !
 --------------------------                            --------------------------
 ! Name  Definition              Value          Derivative Info.                !
 --------------------------------------------------------------------------------
 ! R1    R(1,2)                  1.0887         -DE/DX =    0.0                 !
 ! R2    R(1,3)                  1.0841         -DE/DX =    0.0                 !
 ! R3    R(1,4)                  1.082          -DE/DX =    0.0                 !
 ! R4    R(1,5)                  1.4474         -DE/DX =    0.0                 !
 ! R5    R(5,6)                  1.6726         -DE/DX =    0.0                 !
 ! R6    R(5,11)                 0.9965         -DE/DX =    0.0                 !
 ! R7    R(6,7)                  1.8065         -DE/DX =    0.0                 !
 ! R8    R(7,8)                  1.0815         -DE/DX =    0.0                 !
 ! R9    R(7,9)                  1.0838         -DE/DX =    0.0                 !
 ! R10   R(7,10)                 1.0828         -DE/DX =    0.0                 !
 ! A1    A(2,1,3)              108.1584         -DE/DX =    0.0                 !
 ! A2    A(2,1,4)              108.3694         -DE/DX =    0.0                 !
 ! A3    A(2,1,5)              113.794          -DE/DX =    0.0                 !
 ! A4    A(3,1,4)              108.2981         -DE/DX =    0.0                 !
 ! A5    A(3,1,5)              108.8704         -DE/DX =    0.0                 !
 ! A6    A(4,1,5)              109.2153         -DE/DX =    0.0                 !
 ! A7    A(1,5,6)              119.4985         -DE/DX =    0.0                 !
 ! A8    A(1,5,11)             113.5898         -DE/DX =    0.0                 !
 ! A9    A(6,5,11)             113.0826         -DE/DX =    0.0                 !
 ! A10   A(5,6,7)              105.2141         -DE/DX =    0.0                 !
 ! A11   A(6,7,8)              112.0496         -DE/DX =    0.0                 !
 ! A12   A(6,7,9)              106.1047         -DE/DX =    0.0                 !
 ! A13   A(6,7,10)             111.18           -DE/DX =    0.0                 !
 ! A14   A(8,7,9)              108.601          -DE/DX =    0.0                 !
 ! A15   A(8,7,10)             110.0147         -DE/DX =    0.0                 !
 ! A16   A(9,7,10)             108.7353         -DE/DX =    0.0                 !
 ! D1    D(2,1,5,6)             67.4497         -DE/DX =    0.0                 !
 ! D2    D(2,1,5,11)           -70.1601         -DE/DX =    0.0                 !
 ! D3    D(3,1,5,6)           -171.8432         -DE/DX =    0.0                 !
 ! D4    D(3,1,5,11)            50.547          -DE/DX =    0.0                 !
 ! D5    D(4,1,5,6)            -53.7765         -DE/DX =    0.0                 !
 ! D6    D(4,1,5,11)           168.6138         -DE/DX =    0.0                 !
 ! D7    D(1,5,6,7)            -67.6152         -DE/DX =    0.0                 !
 ! D8    D(11,5,6,7)            70.1936         -DE/DX =    0.0                 !
 ! D9    D(5,6,7,8)             63.8239         -DE/DX =    0.0                 !
 ! D10   D(5,6,7,9)           -177.8072         -DE/DX =    0.0                 !
 ! D11   D(5,6,7,10)           -59.7464         -DE/DX =    0.0                 !
 --------------------------------------------------------------------------------
 GradGradGradGradGradGradGradGradGradGradGradGradGradGradGradGradGradGrad

 1\1\GINC-C051\Freq\RHF\6-311+G(2df,p)\C2H7N1S1\RMCCULL2HS2\29-May-2015
 \0\\#N Geom=AllCheck Guess=TCheck SCRF=Check GenChk RHF/6-311+G(2df,p)
  Freq\\title\\0,1\C,1.6505100463,0.6915889452,-0.2532949831\H,1.284805
 8672,1.6480237826,0.1164423234\H,2.6664950252,0.5586057961,0.100801189
 3\H,1.6697144016,0.7287685575,-1.3345328911\N,0.8550982336,-0.44100530
 75,0.1703508423\S,-0.7060465659,-0.6122929274,-0.4049486036\C,-1.63386
 25952,0.7534904994,0.3279096821\H,-1.2727153608,1.7160409874,-0.007909
 6533\H,-2.6584140506,0.6334900886,-0.0045055433\H,-1.6112906138,0.7059
 396012,1.4094088714\H,0.9379692323,-0.6453309601,1.142190363\\Version=
 EM64L-G09RevA.02\State=1-A\HF=-531.8210319\RMSD=1.589e-09\RMSF=9.461e-
 06\ZeroPoint=0.0986765\Thermal=0.1044322\Dipole=0.1085262,0.7496225,0.
 5774367\DipoleDeriv=0.3944645,0.0867336,-0.0627017,0.2193449,0.5258627
 ,0.0001511,-0.229191,-0.0584087,0.2494203,-0.0176223,0.0897821,0.05355
 92,-0.0424572,-0.1981398,-0.0420008,0.0550967,-0.0787275,0.0045781,-0.
 201785,-0.0261208,-0.05591,-0.0103755,0.0260302,0.0301914,-0.0815747,0
 .0090734,0.0532145,0.0630819,-0.007591,-0.0276705,-0.0301881,0.0312328
 ,-0.0243685,0.0430636,0.0287535,-0.1219325,-0.817692,0.1157123,0.05138
 02,-0.1350593,-0.6935408,-0.0771679,-0.0751223,-0.006971,-0.3098008,0.
 5815567,-0.082849,0.1226064,0.0281493,0.0815589,0.2044524,0.3079985,0.
 1967588,0.0034519,-0.0131827,-0.0866173,-0.0808437,0.026532,0.0808157,
 -0.0193574,-0.0247713,-0.0476558,0.1081111,0.0347227,-0.0335836,0.0411
 245,0.0171028,-0.1570422,-0.0012862,0.0553929,0.0094398,0.0300228,-0.1
 237097,0.0110393,-0.0360609,0.0120028,0.0595382,-0.0243684,-0.042388,-
 0.0187189,0.0603167,0.0442681,0.0430117,-0.0027374,0.0650873,-0.003007
 8,-0.020396,0.0410047,-0.0559659,-0.1551606,0.0558979,-0.1095171,-0.00
 27461,-0.1501391,0.2466921,-0.0258497,-0.0495091,0.0224224,0.0777786\P
 olar=59.6068153,-0.8903667,48.5591129,-0.7378744,1.5101381,44.8522097\
 PolarDeriv=-5.6108784,0.7687683,2.9034744,-2.2327366,0.0481891,-0.0123
 47,4.1964955,2.3289624,-2.9488601,0.1306681,-2.0662919,0.5308598,-3.76
 67602,-0.2627944,-2.7917776,-1.2600909,-0.9903305,5.1323706,-0.3763608
 ,1.009589,-1.4438833,0.7307257,-0.188269,-0.3587398,0.7313543,0.304491
 8,7.3578913,-0.1498138,1.5654134,0.7403242,0.958117,0.0797837,1.832888
 ,0.0285265,1.6481285,0.5848404,11.0600445,0.4238609,0.376163,1.713239,
 0.0070974,0.9874172,-1.1455591,1.1262581,-0.1715845,-0.1488664,0.60799
 95,-0.3699082,2.8914091,0.2150929,0.6649998,1.9898109,0.0708945,0.7736
 019,0.9956497,0.0180332,-0.3442848,-1.1087147,-0.1289407,0.4286027,-0.
 4898931,0.0371721,0.4367048,-0.1174888,-0.9852641,0.2537686,-1.3155234
 ,-0.4893864,-0.7740888,1.586933,0.8186649,-7.3889858,4.9870212,-1.1721
 275,0.1462255,1.0932083,0.1605039,-0.8762506,-3.3042975,-0.4099447,-3.
 0182162,0.7833978,0.6393034,0.6362234,0.0280661,1.1629985,0.6884527,-0
 .5278327,0.7609774,-5.9133412,-3.3117996,-4.8577768,1.3528479,-3.61261
 1,0.9408759,0.5054817,-3.7572578,1.7764821,-8.7243539,1.3652914,-3.350
 5313,-2.2782439,-3.4200105,0.7577589,-3.1122401,-0.901166,-3.3155762,-
 2.9011158,2.2849453,2.528559,-4.8969299,3.0061673,-1.0903041,-0.923262
 4,5.3274067,-4.8108607,0.1232106,-1.8671175,3.4592406,2.330618,4.04687
 93,-1.4640618,4.8457365,-0.0523666,-0.1759428,-5.6991461,0.4189315,0.9
 698198,1.9246464,-0.637442,0.054479,0.3321485,0.6433381,0.0202345,7.78
 61146,-0.0179193,-1.0441926,0.3517705,-0.9287984,0.2900515,-2.1528166,
 0.105342,1.33829,-0.2293987,-10.5393977,0.6384361,-0.4180964,-1.312037
 9,0.1174961,-0.8557728,-0.993208,-0.8865033,-0.1705335,0.1978922,-0.58
 55772,-0.3284166,-2.5383457,0.4798514,-0.8536112,-1.6951074,0.073798,-
 0.4776592,-0.86247,0.050197,0.4781168,1.1975485,0.0967532,0.1552546,-0
 .7487006,0.1305728,0.259667,0.1346048,0.9225302,-0.4318312,1.2847256,-
 0.5718608,0.6352635,-1.7794879,1.6211099,9.0047214,0.9543145,-0.377359
 ,-0.0782796,1.1626534,-0.0178808,0.6174679,-0.4596786,0.3831349,-0.930
 0401,-0.3106485,0.8373701,-1.4351645,2.7602412,-0.1974334,1.017194,2.5
 054392,-1.8500136,7.1141124\HyperPolar=-35.1881432,1.9058896,-24.13020
 19,-19.8503887,5.2960631,-4.9571101,19.5776697,-8.9854423,-5.4243513,-
 60.1153546\PG=C01 [X(C2H7N1S1)]\NImag=0\\0.61238758,-0.03439452,0.5669
 7624,0.03327583,0.00735637,0.65279474,-0.09830172,0.08466589,0.0342206
 9,0.09917631,0.08213652,-0.24521592,-0.08009708,-0.08571723,0.28112287
 ,0.03384887,-0.08060350,-0.09761825,-0.04000633,0.08630955,0.09354629,
 -0.29562125,0.03583923,-0.08436683,-0.01142451,0.00393856,-0.00454514,
 0.32600038,0.04441070,-0.06460583,0.01701099,0.02921720,-0.00333746,0.
 01152019,-0.03457784,0.06947217,-0.08905455,0.01236490,-0.09161148,0.0
 1383422,-0.00217859,0.00600721,0.09475044,-0.01691363,0.08837373,-0.05
 865354,0.00243800,-0.00423260,0.00097489,0.00074144,0.01539734,0.00316
 809,0.00006893,-0.03454861,0.05671524,-0.00022812,-0.05721936,-0.00529
 282,-0.00058257,0.00194421,-0.03208567,0.00016549,-0.00016932,0.005728
 27,0.00564867,0.06498434,0.00337348,0.00491616,-0.33999320,-0.00038414
 ,-0.00143066,-0.01149377,-0.00060400,-0.00036030,-0.00891466,-0.004489
 35,-0.00877445,0.36915044,-0.13037139,-0.09284716,0.00270200,0.0068358
 1,-0.00469515,-0.00309911,-0.02099051,-0.03512225,0.01375361,-0.000987
 22,-0.00123540,0.00061589,0.42739960,-0.06821250,-0.19248309,0.0393178
 4,-0.02827697,-0.03568165,0.01511224,-0.00318359,-0.00017749,0.0013601
 8,-0.00714273,-0.00707065,0.00636431,0.16463124,0.33041949,0.01808871,
 0.06460180,-0.12247328,-0.00749951,-0.00404384,0.00920193,-0.00794619,
 -0.01301524,0.00502916,0.02478209,0.03861455,-0.01115969,0.09285988,-0
 .16496054,0.67178691,-0.03591109,0.00065659,-0.00646509,0.00340567,0.0
 0462897,-0.00092005,-0.00140720,-0.00414995,0.00128329,0.00230338,0.00
 180194,-0.00102665,-0.20648676,-0.06409849,-0.09813434,0.33719409,-0.0
 2609369,-0.00361549,-0.01222032,-0.00144361,0.00041828,-0.00041104,-0.
 00233011,-0.00287943,0.00049038,0.00113440,0.00157888,-0.00131150,-0.0
 0497048,-0.05354652,-0.00057129,-0.00939746,0.20967671,-0.00071926,-0.
 00257471,0.00690225,-0.00010019,0.00213759,-0.00046144,0.00204707,0.00
 135631,0.00059445,0.00172678,0.00031417,0.00161619,-0.05434682,-0.0204
 3569,-0.08679678,0.07110120,0.09731022,0.16163071,0.00153701,0.0039475
 7,0.00015162,0.00058218,-0.00047824,-0.00003559,0.00017686,-0.00041848
 ,0.00023340,-0.00056775,-0.00042859,0.00039047,-0.02399907,0.02317196,
 0.01040892,-0.06718751,0.01530870,0.00334428,0.53799355,-0.00045659,0.
 00676259,0.00125756,0.00134619,-0.00061342,-0.00073396,-0.00036560,-0.
 00085806,-0.00011998,0.00010886,-0.00025904,0.00015011,-0.00601613,0.0
 0846778,0.00227764,0.04734527,-0.13280684,-0.05176976,0.08395992,0.510
 13146,0.00179518,-0.00027862,-0.00141834,0.00025156,-0.00047162,0.0003
 3310,-0.00026141,0.00000416,0.00023977,-0.00031909,-0.00027617,-0.0003
 0248,-0.01290228,0.01023367,0.00690597,0.02891102,-0.06156032,-0.07862
 199,0.04760852,-0.04379671,0.57698125,0.00007276,-0.00080172,-0.000109
 57,-0.00164831,-0.00003556,0.00009683,0.00023182,-0.00010599,-0.000011
 98,-0.00004862,0.00008057,0.00004294,0.00143575,-0.00155073,-0.0014118
 8,0.00390046,0.02141563,-0.00028750,-0.08638551,-0.08748213,0.02678600
 ,0.09138505,-0.00000803,-0.00097432,0.00043633,0.00000711,0.00113883,0
 .00025963,0.00010715,0.00051430,0.00003905,-0.00001339,-0.00003565,0.0
 0002366,0.00075122,0.00288972,0.00058432,-0.00372446,-0.02217190,-0.00
 137638,-0.09274221,-0.27913580,0.08646087,0.09691052,0.29870474,0.0000
 3212,0.00092691,0.00067674,0.00035982,-0.00020449,0.00001097,0.0000450
 9,-0.00002521,-0.00014368,0.00011860,-0.00015806,-0.00022096,-0.000103
 15,0.00209731,-0.00035342,-0.00426259,-0.01705579,0.00425847,0.0297000
 5,0.08110237,-0.08669990,-0.03637286,-0.08795683,0.08810871,0.00101532
 ,0.00089599,-0.00025507,0.00039066,-0.00021918,-0.00003449,-0.00004076
 ,0.00000808,-0.00000205,-0.00009358,-0.00008943,0.00005423,-0.00387340
 ,0.00367692,0.00189178,-0.01340108,-0.00326631,-0.00548380,-0.31016713
 ,-0.03270696,-0.08480532,-0.00972892,-0.00124928,-0.00326218,0.3336065
 1,-0.00060440,-0.00211714,0.00005206,-0.00020087,0.00075527,0.00020728
 ,0.00004016,0.00045861,-0.00005747,0.00010653,0.00020944,-0.00004882,0
 .00595219,-0.00523615,-0.00265909,0.01983112,0.00600097,0.00995744,-0.
 02877276,-0.05562440,-0.00882562,-0.03126606,-0.00124531,-0.01079424,0
 .03325940,0.05688608,-0.00012831,-0.00071215,0.00022338,-0.00018427,0.
 00017031,-0.00010215,0.00005582,0.00012067,-0.00003556,0.00003289,0.00
 008342,0.00000446,0.00290282,-0.00235097,-0.00094399,0.01061106,0.0039
 7263,0.00468052,-0.08209704,-0.00953275,-0.08028692,0.01206422,0.00052
 762,0.00380174,0.09169977,0.01182481,0.08150911,-0.00058057,-0.0000149
 7,0.00003208,-0.00008545,-0.00005260,0.00014210,-0.00005755,-0.0000521
 0,-0.00002237,0.00012311,0.00004524,-0.00005082,0.00212955,-0.00242039
 ,-0.00019261,-0.00235418,0.00827233,0.01854401,-0.05400186,-0.00630378
 ,-0.00543913,0.00129460,-0.00049472,0.01354624,0.00187102,0.00187589,-
 0.03532123,0.05184552,0.00028190,-0.00032163,-0.00005879,0.00008158,-0
 .00001288,0.00002940,0.00006420,0.00011799,0.00005282,-0.00009315,-0.0
 0020413,-0.00005653,-0.00214351,0.00168165,0.00267680,0.00274126,-0.00
 617568,-0.02877881,-0.00295815,-0.05386449,0.01508352,0.00242823,0.000
 70920,0.03227143,-0.00012250,-0.00011686,-0.00366433,-0.00093437,0.057
 61408,0.00018076,-0.00051759,-0.00007528,0.00006884,0.00019169,-0.0001
 8944,0.00007851,0.00007440,0.00000975,-0.00010705,0.00003414,0.0000024
 5,0.00136287,0.00102183,0.00314877,-0.00064657,-0.00505820,-0.00861345
 ,-0.01046662,0.02081538,-0.34042465,-0.00082086,0.00100624,-0.00914861
 ,-0.00016895,0.00071762,-0.00862569,0.00948514,-0.01839058,0.36435162,
 0.00442690,-0.00038492,0.02504693,0.00009447,-0.00024753,-0.00084443,-
 0.00003537,0.00072171,-0.00021540,-0.00293400,-0.00517781,0.00207795,-
 0.05109236,-0.01659473,-0.03284684,-0.02005579,0.00137059,-0.03582576,
 0.00201923,0.00057096,-0.00162507,-0.00050909,0.00045609,0.00019887,0.
 00042137,-0.00022120,0.00036427,-0.00018420,0.00065452,0.00103393,0.06
 784884,0.00316872,-0.00718606,0.03223785,0.00090328,-0.00051812,0.0003
 9587,0.00030236,0.00146452,-0.00076592,-0.00299756,-0.00375871,0.00052
 802,-0.02430457,-0.04926307,0.07649487,0.00436520,0.00352102,-0.006140
 38,-0.00058973,-0.00219978,0.00342684,0.00040724,-0.00039380,-0.000203
 40,-0.00018674,0.00002951,-0.00043927,0.00007947,0.00057276,0.00010506
 ,0.01885232,0.05773172,-0.00069282,-0.00547957,-0.00740728,-0.00056070
 ,-0.00038286,0.00076555,0.00074665,0.00022765,0.00045131,0.00163902,0.
 00181261,0.00131123,-0.04374571,0.11223981,-0.47434558,-0.00045127,-0.
 00358477,-0.00518892,0.00076197,0.00035010,0.00329419,0.00002466,-0.00
 000451,-0.00029006,0.00036608,-0.00037399,-0.00022489,-0.00072340,0.00
 083507,-0.00043546,0.04263553,-0.10563955,0.48206991\\0.00000450,0.000
 00286,0.00000584,-0.00000514,-0.00000379,-0.00000117,0.00000384,-0.000
 00186,0.00000205,0.00000048,0.00000286,-0.00000863,0.00001244,0.000010
 09,0.00000461,-0.00002040,-0.00002265,-0.00001899,-0.00001092,0.000027
 87,0.00000512,0.00000317,-0.00000508,-0.00000042,0.00000890,-0.0000050
 1,0.00000079,0.00000278,-0.00000595,0.00000302,0.00000035,0.00000067,0
 .00000778\\\@


 TERRY FORSTER, PORTLY ATLANTA BRAVES RELIEVER,
 ANNOUNCING THAT HE WAS GOING TO A FAT FARM:
 "A WAIST IS A TERRIBLE THING TO MIND."
 Job cpu time:  0 days  0 hours  7 minutes 47.0 seconds.
 File lengths (MBytes):  RWF=     37 Int=      0 D2E=      0 Chk=      3 Scr=      1
 Normal termination of Gaussian 09 at Fri May 29 10:20:15 2015.
