 Entering Gaussian System, Link 0=g09
 Input=Gas-HF-6-311+G2dfp-Freq-Opt-CH3COSNHCH3CO.inp
 Output=Gas-HF-6-311+G2dfp-Freq-Opt-CH3COSNHCH3CO.log
 Initial command:
 /usr/local/g09/l1.exe /local/gaussian-tmp/3702325/Gau-18306.inp -scrdir=/local/gaussian-tmp/3702325/
 Entering Link 1 = /usr/local/g09/l1.exe PID=     18307.
  
 Copyright (c) 1988,1990,1992,1993,1995,1998,2003,2009, Gaussian, Inc.
                  All Rights Reserved.
  
 This is part of the Gaussian(R) 09 program.  It is based on
 the Gaussian(R) 03 system (copyright 2003, Gaussian, Inc.),
 the Gaussian(R) 98 system (copyright 1998, Gaussian, Inc.),
 the Gaussian(R) 94 system (copyright 1995, Gaussian, Inc.),
 the Gaussian 92(TM) system (copyright 1992, Gaussian, Inc.),
 the Gaussian 90(TM) system (copyright 1990, Gaussian, Inc.),
 the Gaussian 88(TM) system (copyright 1988, Gaussian, Inc.),
 the Gaussian 86(TM) system (copyright 1986, Carnegie Mellon
 University), and the Gaussian 82(TM) system (copyright 1983,
 Carnegie Mellon University). Gaussian is a federally registered
 trademark of Gaussian, Inc.
  
 This software contains proprietary and confidential information,
 including trade secrets, belonging to Gaussian, Inc.
  
 This software is provided under written license and may be
 used, copied, transmitted, or stored only in accord with that
 written license.
  
 The following legend is applicable only to US Government
 contracts under FAR:
  
                    RESTRICTED RIGHTS LEGEND
  
 Use, reproduction and disclosure by the US Government is
 subject to restrictions as set forth in subparagraphs (a)
 and (c) of the Commercial Computer Software - Restricted
 Rights clause in FAR 52.227-19.
  
 Gaussian, Inc.
 340 Quinnipiac St., Bldg. 40, Wallingford CT 06492
  
  
 ---------------------------------------------------------------
 Warning -- This program may not be used in any manner that
 competes with the business of Gaussian, Inc. or will provide
 assistance to any competitor of Gaussian, Inc.  The licensee
 of this program is prohibited from giving any competitor of
 Gaussian, Inc. access to this program.  By using this program,
 the user acknowledges that Gaussian, Inc. is engaged in the
 business of creating and licensing software in the field of
 computational chemistry and represents and warrants to the
 licensee that it is not a competitor of Gaussian, Inc. and that
 it will not use this program in any manner prohibited above.
 ---------------------------------------------------------------
  

 Cite this work as:
 Gaussian 09, Revision A.02,
 M. J. Frisch, G. W. Trucks, H. B. Schlegel, G. E. Scuseria, 
 M. A. Robb, J. R. Cheeseman, G. Scalmani, V. Barone, B. Mennucci, 
 G. A. Petersson, H. Nakatsuji, M. Caricato, X. Li, H. P. Hratchian, 
 A. F. Izmaylov, J. Bloino, G. Zheng, J. L. Sonnenberg, M. Hada, 
 M. Ehara, K. Toyota, R. Fukuda, J. Hasegawa, M. Ishida, T. Nakajima, 
 Y. Honda, O. Kitao, H. Nakai, T. Vreven, J. A. Montgomery, Jr., 
 J. E. Peralta, F. Ogliaro, M. Bearpark, J. J. Heyd, E. Brothers, 
 K. N. Kudin, V. N. Staroverov, R. Kobayashi, J. Normand, 
 K. Raghavachari, A. Rendell, J. C. Burant, S. S. Iyengar, J. Tomasi, 
 M. Cossi, N. Rega, J. M. Millam, M. Klene, J. E. Knox, J. B. Cross, 
 V. Bakken, C. Adamo, J. Jaramillo, R. Gomperts, R. E. Stratmann, 
 O. Yazyev, A. J. Austin, R. Cammi, C. Pomelli, J. W. Ochterski, 
 R. L. Martin, K. Morokuma, V. G. Zakrzewski, G. A. Voth, 
 P. Salvador, J. J. Dannenberg, S. Dapprich, A. D. Daniels, 
 O. Farkas, J. B. Foresman, J. V. Ortiz, J. Cioslowski, 
 and D. J. Fox, Gaussian, Inc., Wallingford CT, 2009.
 
 ******************************************
 Gaussian 09:  EM64L-G09RevA.02 11-Jun-2009
                29-May-2015 
 ******************************************
 %chk=kjkjkjkjdsads
 %mem=10GB
 %nproc=8
 Will use up to    8 processors via shared memory.
 ----------------------------
 # HF/6-311+G(2df,p) Opt Freq
 ----------------------------
 1/18=20,19=15,38=1/1,3;
 2/9=110,12=2,17=6,18=5,40=1/2;
 3/5=4,6=6,7=114,11=9,16=1,25=1,30=1,71=1/1,2,3;
 4//1;
 5/5=2,38=5/2;
 6/7=2,8=2,9=2,10=2,28=1/1;
 7//1,2,3,16;
 1/18=20,19=15/3(2);
 2/9=110/2;
 99//99;
 2/9=110/2;
 3/5=4,6=6,7=114,11=9,16=1,25=1,30=1,71=1/1,2,3;
 4/5=5,16=3/1;
 5/5=2,38=5/2;
 7//1,2,3,16;
 1/18=20,19=15/3(-5);
 2/9=110/2;
 6/7=2,8=2,9=2,10=2,19=2,28=1/1;
 99/9=1/99;
 -----
 title
 -----
 Symbolic Z-matrix:
 Charge =  0 Multiplicity = 1
 6                    -2.01365   0.0332    0.27761 
 6                    -1.75709   1.32559   0.99982 
 1                    -2.62627   1.54332   1.60316 
 1                    -0.88185   1.24412   1.63191 
 1                    -1.57969   2.12725   0.29495 
 8                    -2.98702  -0.61421   0.40245 
 7                    -0.80892  -0.63079  -0.90034 
 16                    0.80882   0.62597  -0.90378 
 6                     2.01358  -0.03161   0.27772 
 6                     1.75769  -1.32078   1.00589 
 1                     1.58119  -2.12588   0.30472 
 1                     2.62678  -1.53503   1.6106 
 1                     0.88212  -1.237     1.63723 
 8                     2.98655   0.61696   0.3997 
 1                    -0.91425  -1.46003  -1.44923 
 

 GradGradGradGradGradGradGradGradGradGradGradGradGradGradGradGradGradGrad
 Berny optimization.
 Initialization pass.
                           ----------------------------
                           !    Initial Parameters    !
                           ! (Angstroms and Degrees)  !
 --------------------------                            --------------------------
 ! Name  Definition              Value          Derivative Info.                !
 --------------------------------------------------------------------------------
 ! R1    R(1,2)                  1.5026         estimate D2E/DX2                !
 ! R2    R(1,6)                  1.1757         estimate D2E/DX2                !
 ! R3    R(1,7)                  1.811          estimate D2E/DX2                !
 ! R4    R(2,3)                  1.0802         estimate D2E/DX2                !
 ! R5    R(2,4)                  1.0827         estimate D2E/DX2                !
 ! R6    R(2,5)                  1.0821         estimate D2E/DX2                !
 ! R7    R(7,8)                  2.0485         estimate D2E/DX2                !
 ! R8    R(7,15)                 1.0            estimate D2E/DX2                !
 ! R9    R(8,9)                  1.811          estimate D2E/DX2                !
 ! R10   R(9,10)                 1.5026         estimate D2E/DX2                !
 ! R11   R(9,14)                 1.1757         estimate D2E/DX2                !
 ! R12   R(10,11)                1.0821         estimate D2E/DX2                !
 ! R13   R(10,12)                1.0802         estimate D2E/DX2                !
 ! R14   R(10,13)                1.0827         estimate D2E/DX2                !
 ! A1    A(2,1,6)              124.3312         estimate D2E/DX2                !
 ! A2    A(2,1,7)              120.9575         estimate D2E/DX2                !
 ! A3    A(6,1,7)              114.7041         estimate D2E/DX2                !
 ! A4    A(1,2,3)              107.7246         estimate D2E/DX2                !
 ! A5    A(1,2,4)              110.7273         estimate D2E/DX2                !
 ! A6    A(1,2,5)              110.6161         estimate D2E/DX2                !
 ! A7    A(3,2,4)              109.8492         estimate D2E/DX2                !
 ! A8    A(3,2,5)              110.2674         estimate D2E/DX2                !
 ! A9    A(4,2,5)              107.6681         estimate D2E/DX2                !
 ! A10   A(1,7,8)              107.5472         estimate D2E/DX2                !
 ! A11   A(1,7,15)             126.2264         estimate D2E/DX2                !
 ! A12   A(8,7,15)             126.2264         estimate D2E/DX2                !
 ! A13   A(7,8,9)              107.547          estimate D2E/DX2                !
 ! A14   A(8,9,10)             120.9577         estimate D2E/DX2                !
 ! A15   A(8,9,14)             114.7036         estimate D2E/DX2                !
 ! A16   A(10,9,14)            124.3314         estimate D2E/DX2                !
 ! A17   A(9,10,11)            110.616          estimate D2E/DX2                !
 ! A18   A(9,10,12)            107.7247         estimate D2E/DX2                !
 ! A19   A(9,10,13)            110.7275         estimate D2E/DX2                !
 ! A20   A(11,10,12)           110.2668         estimate D2E/DX2                !
 ! A21   A(11,10,13)           107.6681         estimate D2E/DX2                !
 ! A22   A(12,10,13)           109.8497         estimate D2E/DX2                !
 ! D1    D(6,1,2,3)             -1.829          estimate D2E/DX2                !
 ! D2    D(6,1,2,4)            118.3089         estimate D2E/DX2                !
 ! D3    D(6,1,2,5)           -122.4118         estimate D2E/DX2                !
 ! D4    D(7,1,2,3)            177.1474         estimate D2E/DX2                !
 ! D5    D(7,1,2,4)            -62.7148         estimate D2E/DX2                !
 ! D6    D(7,1,2,5)             56.5645         estimate D2E/DX2                !
 ! D7    D(2,1,7,8)              2.6135         estimate D2E/DX2                !
 ! D8    D(2,1,7,15)          -177.3865         estimate D2E/DX2                !
 ! D9    D(6,1,7,8)           -178.317          estimate D2E/DX2                !
 ! D10   D(6,1,7,15)             1.683          estimate D2E/DX2                !
 ! D11   D(1,7,8,9)             93.8104         estimate D2E/DX2                !
 ! D12   D(15,7,8,9)           -86.1896         estimate D2E/DX2                !
 ! D13   D(7,8,9,10)             2.6774         estimate D2E/DX2                !
 ! D14   D(7,8,9,14)          -178.2671         estimate D2E/DX2                !
 ! D15   D(8,9,10,11)           56.5674         estimate D2E/DX2                !
 ! D16   D(8,9,10,12)          177.1495         estimate D2E/DX2                !
 ! D17   D(8,9,10,13)          -62.7119         estimate D2E/DX2                !
 ! D18   D(14,9,10,11)        -122.3935         estimate D2E/DX2                !
 ! D19   D(14,9,10,12)          -1.8114         estimate D2E/DX2                !
 ! D20   D(14,9,10,13)         118.3272         estimate D2E/DX2                !
 --------------------------------------------------------------------------------
 Trust Radius=3.00D-01 FncErr=1.00D-07 GrdErr=1.00D-07
 Number of steps in this run=  66 maximum allowed number of steps= 100.
 GradGradGradGradGradGradGradGradGradGradGradGradGradGradGradGradGradGrad

                          Input orientation:                          
 ---------------------------------------------------------------------
 Center     Atomic      Atomic             Coordinates (Angstroms)
 Number     Number       Type             X           Y           Z
 ---------------------------------------------------------------------
      1          6           0       -2.013650    0.033197    0.277607
      2          6           0       -1.757094    1.325587    0.999818
      3          1           0       -2.626274    1.543322    1.603156
      4          1           0       -0.881849    1.244118    1.631909
      5          1           0       -1.579693    2.127246    0.294945
      6          8           0       -2.987020   -0.614210    0.402453
      7          7           0       -0.808924   -0.630788   -0.900344
      8         16           0        0.808822    0.625970   -0.903783
      9          6           0        2.013582   -0.031608    0.277724
     10          6           0        1.757691   -1.320781    1.005895
     11          1           0        1.581189   -2.125877    0.304722
     12          1           0        2.626784   -1.535032    1.610604
     13          1           0        0.882120   -1.237004    1.637230
     14          8           0        2.986545    0.616955    0.399698
     15          1           0       -0.914245   -1.460026   -1.449227
 ---------------------------------------------------------------------
                    Distance matrix (angstroms):
                    1          2          3          4          5
     1  C    0.000000
     2  C    1.502558   0.000000
     3  H    2.100682   1.080231   0.000000
     4  H    2.140429   1.082696   1.770132   0.000000
     5  H    2.138612   1.082116   1.774180   1.747677   0.000000
     6  O    1.175658   2.373263   2.495350   3.065402   3.083457
     7  N    1.811024   2.887394   3.781141   3.151650   3.103152
     8  S    3.116634   3.270640   4.350421   3.109696   3.065254
     9  C    4.027753   4.072026   5.075967   3.441630   4.191965
    10  C    4.072674   4.399661   5.270575   3.733333   4.851028
    11  H    4.193471   4.851793   5.731640   4.380051   5.299087
    12  H    5.076401   5.270160   6.088591   4.476006   5.730418
    13  H    3.442015   3.733446   4.476628   3.044270   4.379547
    14  O    5.035636   4.833675   5.814654   4.108059   4.810663
    15  H    2.533843   3.803663   4.611744   4.099615   4.043943
                    6          7          8          9         10
     6  O    0.000000
     7  N    2.538042   0.000000
     8  S    4.201513   2.048549   0.000000
     9  C    5.035971   3.116633   1.811026   0.000000
    10  C    4.834839   3.270680   2.887397   1.502558   0.000000
    11  H    4.812819   3.065961   3.103175   2.138611   1.082116
    12  H    5.815697   4.350472   3.781145   2.100683   1.080231
    13  H    4.108867   3.109085   3.151633   2.140430   1.082694
    14  O    6.099119   4.201495   2.538035   1.175657   2.373263
    15  H    2.905257   1.000000   2.760045   3.687128   3.631288
                   11         12         13         14         15
    11  H    0.000000
    12  H    1.774174   0.000000
    13  H    1.747676   1.770136   0.000000
    14  O    3.083370   2.495350   3.065494   0.000000
    15  H    3.122000   4.680500   3.578112   4.790463   0.000000
 Stoichiometry    C4H7NO2S
 Framework group  C1[X(C4H7NO2S)]
 Deg. of freedom    39
 Full point group                 C1      NOp   1
 Largest Abelian subgroup         C1      NOp   1
 Largest concise Abelian subgroup C1      NOp   1
                         Standard orientation:                         
 ---------------------------------------------------------------------
 Center     Atomic      Atomic             Coordinates (Angstroms)
 Number     Number       Type             X           Y           Z
 ---------------------------------------------------------------------
      1          6           0        2.107933    0.101796    0.098132
      2          6           0        1.892548   -0.873073    1.221041
      3          1           0        2.780980   -0.868467    1.835505
      4          1           0        1.033110   -0.589343    1.815258
      5          1           0        1.710136   -1.866711    0.833250
      6          8           0        3.073159    0.760191   -0.032348
      7          7           0        0.861328    0.321137   -1.197118
      8         16           0       -0.734411   -0.874469   -0.727335
      9          6           0       -1.918401    0.134584    0.199917
     10          6           0       -1.665182    1.595570    0.442979
     11          1           0       -1.520996    2.118240   -0.493505
     12          1           0       -2.521446    1.995107    0.966506
     13          1           0       -0.771890    1.735769    1.038463
     14          8           0       -2.876659   -0.441655    0.563041
     15          1           0        0.937996    0.917395   -1.996242
 ---------------------------------------------------------------------
 Rotational constants (GHZ):      2.9522710      0.8664968      0.8385213
 Standard basis: 6-311+G(2df,p) (5D, 7F)
 There are   322 symmetry adapted basis functions of A   symmetry.
 Integral buffers will be    131072 words long.
 Raffenetti 1 integral format.
 Two-electron integral symmetry is turned on.
   322 basis functions,   486 primitive gaussians,   362 cartesian basis functions
    35 alpha electrons       35 beta electrons
       nuclear repulsion energy       424.2053491147 Hartrees.
 NAtoms=   15 NActive=   15 NUniq=   15 SFac= 7.50D-01 NAtFMM=   80 NAOKFM=F Big=F
 One-electron integrals computed using PRISM.
 NBasis=   322 RedAO= T  NBF=   322
 NBsUse=   322 1.00D-06 NBFU=   322
 Harris functional with IExCor=  205 diagonalized for initial guess.
 ExpMin= 4.05D-02 ExpMax= 9.34D+04 ExpMxC= 3.17D+03 IAcc=2 IRadAn=         0 AccDes= 0.00D+00
 HarFok:  IExCor=  205 AccDes= 0.00D+00 IRadAn=         0 IDoV= 1
 ScaDFX=  1.000000  1.000000  1.000000  1.000000
 FoFCou: FMM=F IPFlag=           0 FMFlag=      100000 FMFlg1=           0
         NFxFlg=           0 DoJE=T BraDBF=F KetDBF=T FulRan=T
         Omega=  0.000000  0.000000  1.000000  0.000000  0.000000 ICntrl=     500 IOpCl=  0
         NMat0=    1 NMatS0=    1 NMatT0=    0 NMatD0=    1 NMtDS0=    0 NMtDT0=    0
         I1Cent=           4 NGrid=           0.
 Petite list used in FoFCou.
 Initial guess orbital symmetries:
       Occupied  (A) (A) (A) (A) (A) (A) (A) (A) (A) (A) (A) (A)
                 (A) (A) (A) (A) (A) (A) (A) (A) (A) (A) (A) (A)
                 (A) (A) (A) (A) (A) (A) (A) (A) (A) (A) (A)
       Virtual   (A) (A) (A) (A) (A) (A) (A) (A) (A) (A) (A) (A)
                 (A) (A) (A) (A) (A) (A) (A) (A) (A) (A) (A) (A)
                 (A) (A) (A) (A) (A) (A) (A) (A) (A) (A) (A) (A)
                 (A) (A) (A) (A) (A) (A) (A) (A) (A) (A) (A) (A)
                 (A) (A) (A) (A) (A) (A) (A) (A) (A) (A) (A) (A)
                 (A) (A) (A) (A) (A) (A) (A) (A) (A) (A) (A) (A)
                 (A) (A) (A) (A) (A) (A) (A) (A) (A) (A) (A) (A)
                 (A) (A) (A) (A) (A) (A) (A) (A) (A) (A) (A) (A)
                 (A) (A) (A) (A) (A) (A) (A) (A) (A) (A) (A) (A)
                 (A) (A) (A) (A) (A) (A) (A) (A) (A) (A) (A) (A)
                 (A) (A) (A) (A) (A) (A) (A) (A) (A) (A) (A) (A)
                 (A) (A) (A) (A) (A) (A) (A) (A) (A) (A) (A) (A)
                 (A) (A) (A) (A) (A) (A) (A) (A) (A) (A) (A) (A)
                 (A) (A) (A) (A) (A) (A) (A) (A) (A) (A) (A) (A)
                 (A) (A) (A) (A) (A) (A) (A) (A) (A) (A) (A) (A)
                 (A) (A) (A) (A) (A) (A) (A) (A) (A) (A) (A) (A)
                 (A) (A) (A) (A) (A) (A) (A) (A) (A) (A) (A) (A)
                 (A) (A) (A) (A) (A) (A) (A) (A) (A) (A) (A) (A)
                 (A) (A) (A) (A) (A) (A) (A) (A) (A) (A) (A) (A)
                 (A) (A) (A) (A) (A) (A) (A) (A) (A) (A) (A) (A)
                 (A) (A) (A) (A) (A) (A) (A) (A) (A) (A) (A) (A)
                 (A) (A) (A) (A) (A) (A) (A) (A) (A) (A) (A) (A)
                 (A) (A) (A) (A) (A) (A) (A) (A) (A) (A) (A) (A)
                 (A) (A) (A) (A) (A) (A) (A) (A) (A) (A) (A)
 The electronic state of the initial guess is 1-A.
 Requested convergence on RMS density matrix=1.00D-08 within 128 cycles.
 Requested convergence on MAX density matrix=1.00D-06.
 Requested convergence on             energy=1.00D-06.
 No special actions if energy rises.
 Initial convergence to 1.0D-05 achieved.  Increase integral accuracy.
 SCF Done:  E(RHF) =  -757.268316986     A.U. after   17 cycles
             Convg  =    0.5734D-08             -V/T =  2.0013

 **********************************************************************

            Population analysis using the SCF density.

 **********************************************************************

 Orbital symmetries:
       Occupied  (A) (A) (A) (A) (A) (A) (A) (A) (A) (A) (A) (A)
                 (A) (A) (A) (A) (A) (A) (A) (A) (A) (A) (A) (A)
                 (A) (A) (A) (A) (A) (A) (A) (A) (A) (A) (A)
       Virtual   (A) (A) (A) (A) (A) (A) (A) (A) (A) (A) (A) (A)
                 (A) (A) (A) (A) (A) (A) (A) (A) (A) (A) (A) (A)
                 (A) (A) (A) (A) (A) (A) (A) (A) (A) (A) (A) (A)
                 (A) (A) (A) (A) (A) (A) (A) (A) (A) (A) (A) (A)
                 (A) (A) (A) (A) (A) (A) (A) (A) (A) (A) (A) (A)
                 (A) (A) (A) (A) (A) (A) (A) (A) (A) (A) (A) (A)
                 (A) (A) (A) (A) (A) (A) (A) (A) (A) (A) (A) (A)
                 (A) (A) (A) (A) (A) (A) (A) (A) (A) (A) (A) (A)
                 (A) (A) (A) (A) (A) (A) (A) (A) (A) (A) (A) (A)
                 (A) (A) (A) (A) (A) (A) (A) (A) (A) (A) (A) (A)
                 (A) (A) (A) (A) (A) (A) (A) (A) (A) (A) (A) (A)
                 (A) (A) (A) (A) (A) (A) (A) (A) (A) (A) (A) (A)
                 (A) (A) (A) (A) (A) (A) (A) (A) (A) (A) (A) (A)
                 (A) (A) (A) (A) (A) (A) (A) (A) (A) (A) (A) (A)
                 (A) (A) (A) (A) (A) (A) (A) (A) (A) (A) (A) (A)
                 (A) (A) (A) (A) (A) (A) (A) (A) (A) (A) (A) (A)
                 (A) (A) (A) (A) (A) (A) (A) (A) (A) (A) (A) (A)
                 (A) (A) (A) (A) (A) (A) (A) (A) (A) (A) (A) (A)
                 (A) (A) (A) (A) (A) (A) (A) (A) (A) (A) (A) (A)
                 (A) (A) (A) (A) (A) (A) (A) (A) (A) (A) (A) (A)
                 (A) (A) (A) (A) (A) (A) (A) (A) (A) (A) (A) (A)
                 (A) (A) (A) (A) (A) (A) (A) (A) (A) (A) (A) (A)
                 (A) (A) (A) (A) (A) (A) (A) (A) (A) (A) (A) (A)
                 (A) (A) (A) (A) (A) (A) (A) (A) (A) (A) (A)
 The electronic state is 1-A.
 Alpha  occ. eigenvalues --  -92.01139 -20.59709 -20.57136 -15.60418 -11.41822
 Alpha  occ. eigenvalues --  -11.37161 -11.27312 -11.24778  -9.00737  -6.68845
 Alpha  occ. eigenvalues --   -6.68753  -6.68672  -1.45605  -1.44021  -1.10551
 Alpha  occ. eigenvalues --   -1.04606  -1.03581  -0.95508  -0.77998  -0.74903
 Alpha  occ. eigenvalues --   -0.68697  -0.67248  -0.65890  -0.64850  -0.64111
 Alpha  occ. eigenvalues --   -0.62889  -0.58856  -0.57160  -0.55546  -0.54288
 Alpha  occ. eigenvalues --   -0.51643  -0.44252  -0.42536  -0.39109  -0.38228
 Alpha virt. eigenvalues --    0.05333   0.06345   0.07154   0.08038   0.09241
 Alpha virt. eigenvalues --    0.09867   0.10392   0.11235   0.11506   0.12164
 Alpha virt. eigenvalues --    0.13333   0.13403   0.13584   0.14029   0.14923
 Alpha virt. eigenvalues --    0.15661   0.15937   0.16548   0.17820   0.19003
 Alpha virt. eigenvalues --    0.19727   0.20452   0.21097   0.22096   0.22714
 Alpha virt. eigenvalues --    0.25652   0.26915   0.27787   0.29582   0.31429
 Alpha virt. eigenvalues --    0.32598   0.33634   0.34458   0.35036   0.35926
 Alpha virt. eigenvalues --    0.36382   0.37460   0.38058   0.38655   0.39151
 Alpha virt. eigenvalues --    0.39457   0.40458   0.42047   0.43881   0.44289
 Alpha virt. eigenvalues --    0.44961   0.47610   0.48585   0.50436   0.51417
 Alpha virt. eigenvalues --    0.52745   0.55670   0.56916   0.60856   0.62482
 Alpha virt. eigenvalues --    0.63121   0.65033   0.66651   0.70016   0.71133
 Alpha virt. eigenvalues --    0.71588   0.74341   0.75030   0.76901   0.79142
 Alpha virt. eigenvalues --    0.80374   0.81031   0.82694   0.84178   0.84992
 Alpha virt. eigenvalues --    0.85888   0.86887   0.87170   0.88916   0.91608
 Alpha virt. eigenvalues --    0.91974   0.92309   0.94218   0.98174   0.98693
 Alpha virt. eigenvalues --    0.99635   1.02992   1.05719   1.08723   1.09364
 Alpha virt. eigenvalues --    1.10837   1.13946   1.16912   1.19841   1.22518
 Alpha virt. eigenvalues --    1.23769   1.24490   1.25864   1.25929   1.26661
 Alpha virt. eigenvalues --    1.28983   1.31132   1.32165   1.34292   1.37519
 Alpha virt. eigenvalues --    1.38916   1.41341   1.43638   1.46148   1.46469
 Alpha virt. eigenvalues --    1.48093   1.49647   1.51135   1.52971   1.61441
 Alpha virt. eigenvalues --    1.63723   1.66531   1.69006   1.69768   1.70949
 Alpha virt. eigenvalues --    1.76468   1.84421   1.85973   1.86326   1.87687
 Alpha virt. eigenvalues --    1.88654   1.91430   1.94107   1.94668   1.97114
 Alpha virt. eigenvalues --    2.00320   2.03750   2.05971   2.07006   2.09409
 Alpha virt. eigenvalues --    2.11068   2.12537   2.13842   2.15930   2.20539
 Alpha virt. eigenvalues --    2.22109   2.26376   2.27878   2.28214   2.29101
 Alpha virt. eigenvalues --    2.33319   2.37704   2.42042   2.50578   2.52243
 Alpha virt. eigenvalues --    2.52785   2.54409   2.56454   2.58476   2.60101
 Alpha virt. eigenvalues --    2.60818   2.61774   2.62801   2.65099   2.66878
 Alpha virt. eigenvalues --    2.69028   2.70376   2.73525   2.74424   2.77396
 Alpha virt. eigenvalues --    2.82709   2.83612   2.84467   2.85883   2.87806
 Alpha virt. eigenvalues --    2.89981   2.95779   3.00421   3.00715   3.04871
 Alpha virt. eigenvalues --    3.07092   3.08763   3.11338   3.12809   3.17582
 Alpha virt. eigenvalues --    3.18564   3.23543   3.26146   3.30168   3.31004
 Alpha virt. eigenvalues --    3.41124   3.42566   3.43276   3.44991   3.47726
 Alpha virt. eigenvalues --    3.52106   3.54345   3.56750   3.57596   3.61308
 Alpha virt. eigenvalues --    3.64929   3.66249   3.68209   3.69935   3.70445
 Alpha virt. eigenvalues --    3.72423   3.73163   3.74054   3.76394   3.78073
 Alpha virt. eigenvalues --    3.81913   3.83458   3.88791   3.90499   3.94234
 Alpha virt. eigenvalues --    3.97151   3.99144   4.04678   4.06892   4.10724
 Alpha virt. eigenvalues --    4.13405   4.14663   4.16395   4.21657   4.26160
 Alpha virt. eigenvalues --    4.28618   4.31060   4.33565   4.34605   4.36647
 Alpha virt. eigenvalues --    4.39311   4.43162   4.43724   4.51312   4.52750
 Alpha virt. eigenvalues --    4.54999   4.55909   4.64209   4.65384   4.71771
 Alpha virt. eigenvalues --    4.78213   4.84627   4.99345   5.07219   5.09154
 Alpha virt. eigenvalues --    5.11776   5.12443   5.30298   5.33598   5.39868
 Alpha virt. eigenvalues --    5.41386   5.50497   5.51267   5.51483   5.51634
 Alpha virt. eigenvalues --    5.62719   5.63514   5.65222   5.70285   5.79983
 Alpha virt. eigenvalues --    5.83489   5.92259   5.93490   5.94318   5.95074
 Alpha virt. eigenvalues --    6.00681   6.01873   6.14640   6.16398   6.85109
 Alpha virt. eigenvalues --    6.87018   7.10363   7.12157   7.35089   7.37911
 Alpha virt. eigenvalues --    7.39788   7.41031   7.62069   7.65045   7.73160
 Alpha virt. eigenvalues --    7.76080   7.94273   7.98189   8.16418   8.18599
 Alpha virt. eigenvalues --    8.73416  18.41416  18.68339  18.83148  25.44327
 Alpha virt. eigenvalues --   25.48814  25.66680  25.70488  36.99968  51.85758
 Alpha virt. eigenvalues --   51.89918 192.53264
          Condensed to atoms (all electrons):
              1          2          3          4          5          6
     1  C    5.421655  -0.264727  -0.033537  -0.042076  -0.047509   0.387251
     2  C   -0.264727   5.491045   0.412440   0.423996   0.438868  -0.057436
     3  H   -0.033537   0.412440   0.463129  -0.022368  -0.020892   0.000709
     4  H   -0.042076   0.423996  -0.022368   0.491018  -0.027101   0.001563
     5  H   -0.047509   0.438868  -0.020892  -0.027101   0.466281   0.000888
     6  O    0.387251  -0.057436   0.000709   0.001563   0.000888   8.045925
     7  N    0.297979  -0.027455   0.003373   0.000865  -0.000151  -0.078575
     8  S    0.014104  -0.086802   0.003373  -0.017763  -0.011042   0.006860
     9  C    0.035886   0.016311   0.000437   0.005132  -0.001567  -0.003482
    10  C    0.006095  -0.025716  -0.000400  -0.001592   0.000698   0.000825
    11  H   -0.000737   0.000208   0.000002  -0.000074   0.000006   0.000069
    12  H    0.000610  -0.000447   0.000000   0.000003   0.000000  -0.000020
    13  H    0.005566  -0.004179  -0.000008   0.001371  -0.000036  -0.000250
    14  O   -0.002969  -0.000658  -0.000045   0.000060   0.000132   0.000091
    15  H   -0.024806   0.002233   0.000004  -0.000138  -0.000114   0.010891
              7          8          9         10         11         12
     1  C    0.297979   0.014104   0.035886   0.006095  -0.000737   0.000610
     2  C   -0.027455  -0.086802   0.016311  -0.025716   0.000208  -0.000447
     3  H    0.003373   0.003373   0.000437  -0.000400   0.000002   0.000000
     4  H    0.000865  -0.017763   0.005132  -0.001592  -0.000074   0.000003
     5  H   -0.000151  -0.011042  -0.001567   0.000698   0.000006   0.000000
     6  O   -0.078575   0.006860  -0.003482   0.000825   0.000069  -0.000020
     7  N    6.999459   0.084665   0.010382  -0.032918  -0.005699   0.000989
     8  S    0.084665  15.852161   0.269582  -0.062822  -0.000067   0.000614
     9  C    0.010382   0.269582   5.326806  -0.223272  -0.049240  -0.060675
    10  C   -0.032918  -0.062822  -0.223272   5.668650   0.436270   0.444264
    11  H   -0.005699  -0.000067  -0.049240   0.436270   0.487920  -0.022877
    12  H    0.000989   0.000614  -0.060675   0.444264  -0.022877   0.474461
    13  H   -0.006556  -0.002549  -0.033062   0.409870  -0.029046  -0.024367
    14  O    0.008004  -0.140539   0.369164  -0.027494   0.001275   0.005785
    15  H    0.325426  -0.011861   0.002070  -0.006568   0.000768  -0.000040
             13         14         15
     1  C    0.005566  -0.002969  -0.024806
     2  C   -0.004179  -0.000658   0.002233
     3  H   -0.000008  -0.000045   0.000004
     4  H    0.001371   0.000060  -0.000138
     5  H   -0.000036   0.000132  -0.000114
     6  O   -0.000250   0.000091   0.010891
     7  N   -0.006556   0.008004   0.325426
     8  S   -0.002549  -0.140539  -0.011861
     9  C   -0.033062   0.369164   0.002070
    10  C    0.409870  -0.027494  -0.006568
    11  H   -0.029046   0.001275   0.000768
    12  H   -0.024367   0.005785  -0.000040
    13  H    0.510994   0.001429   0.000151
    14  O    0.001429   8.124937   0.000025
    15  H    0.000151   0.000025   0.364941
 Mulliken atomic charges:
              1
     1  C    0.247214
     2  C   -0.317683
     3  H    0.193784
     4  H    0.187105
     5  H    0.201540
     6  O   -0.315308
     7  N   -0.579787
     8  S    0.102087
     9  C    0.335527
    10  C   -0.585891
    11  H    0.181221
    12  H    0.181698
    13  H    0.170671
    14  O   -0.339197
    15  H    0.337018
 Sum of Mulliken atomic charges =   0.00000
 Mulliken charges with hydrogens summed into heavy atoms:
              1
     1  C    0.247214
     2  C    0.264745
     6  O   -0.315308
     7  N   -0.242769
     8  S    0.102087
     9  C    0.335527
    10  C   -0.052300
    14  O   -0.339197
 Sum of Mulliken charges with hydrogens summed into heavy atoms =   0.00000
 Electronic spatial extent (au):  <R**2>=           1434.9860
 Charge=              0.0000 electrons
 Dipole moment (field-independent basis, Debye):
    X=              1.1117    Y=              0.8487    Z=              1.3133  Tot=              1.9186
 Quadrupole moment (field-independent basis, Debye-Ang):
   XX=            -69.9315   YY=            -52.9976   ZZ=            -51.8487
   XY=            -10.4774   XZ=              4.7892   YZ=             -2.2363
 Traceless Quadrupole moment (field-independent basis, Debye-Ang):
   XX=            -11.6722   YY=              5.2616   ZZ=              6.4106
   XY=            -10.4774   XZ=              4.7892   YZ=             -2.2363
 Octapole moment (field-independent basis, Debye-Ang**2):
  XXX=              5.7497  YYY=              2.3341  ZZZ=              1.1907  XYY=             -2.0433
  XXY=             -3.5544  XXZ=              0.5577  XZZ=              8.6323  YZZ=              6.7753
  YYZ=              0.1219  XYZ=             -5.8265
 Hexadecapole moment (field-independent basis, Debye-Ang**3):
 XXXX=          -1464.7602 YYYY=           -312.6274 ZZZZ=           -250.6294 XXXY=            -75.9454
 XXXZ=             39.7122 YYYX=             -4.5903 YYYZ=             -5.1710 ZZZX=             -3.7284
 ZZZY=            -19.4087 XXYY=           -260.2089 XXZZ=           -245.9017 YYZZ=            -90.9332
 XXYZ=             -1.5071 YYXZ=             -2.4813 ZZXY=              0.5731
 N-N= 4.242053491147D+02 E-N=-2.639096678273D+03  KE= 7.563205073879D+02
 Calling FoFJK, ICntrl=      2127 FMM=F ISym2X=0 I1Cent= 0 IOpClX= 0 NMat=1 NMatS=1 NMatT=0.
 ***** Axes restored to original set *****
 -------------------------------------------------------------------
 Center     Atomic                   Forces (Hartrees/Bohr)
 Number     Number              X              Y              Z
 -------------------------------------------------------------------
      1        6          -0.003962848   -0.074855256   -0.052797504
      2        6           0.018257771    0.001430246   -0.009300140
      3        1          -0.000945210   -0.004351737   -0.002422295
      4        1          -0.000555710   -0.000249379   -0.001045208
      5        1           0.000159816   -0.001153425    0.000175624
      6        8           0.039885231    0.020451658   -0.008485194
      7        7           0.011419572    0.122547182    0.088788172
      8       16          -0.060871991   -0.065725525   -0.008179383
      9        6          -0.008371337   -0.004425428   -0.006208329
     10        6          -0.000646465    0.000290122   -0.000219452
     11        1          -0.000421099    0.000689302   -0.000416971
     12        1           0.000347645   -0.000355010    0.000321823
     13        1          -0.000572310    0.000399278   -0.000861088
     14        8           0.002114056    0.003667188    0.001123083
     15        1           0.004162879    0.001640783   -0.000473138
 -------------------------------------------------------------------
 Cartesian Forces:  Max     0.122547182 RMS     0.030634916

 GradGradGradGradGradGradGradGradGradGradGradGradGradGradGradGradGradGrad
 Berny optimization.
 Internal  Forces:  Max     0.104731785 RMS     0.021633684
 Search for a local minimum.
 Step number   1 out of a maximum of   66
 All quantities printed in internal units (Hartrees-Bohrs-Radians)
 Mixed Optimization -- RFO/linear search
 Second derivative matrix not updated -- first step.
     Eigenvalues ---    0.00230   0.00230   0.00230   0.00230   0.00554
     Eigenvalues ---    0.00625   0.00732   0.00732   0.07359   0.07359
     Eigenvalues ---    0.07585   0.07585   0.13375   0.13579   0.16000
     Eigenvalues ---    0.16000   0.16000   0.16000   0.16000   0.16000
     Eigenvalues ---    0.16000   0.22000   0.24997   0.24998   0.25000
     Eigenvalues ---    0.25000   0.25000   0.25267   0.32110   0.32110
     Eigenvalues ---    0.35671   0.35671   0.35740   0.35740   0.35966
     Eigenvalues ---    0.35966   0.47688   1.18071   1.180721000.00000
     Eigenvalues --- 1000.000001000.000001000.000001000.000001000.00000
     Eigenvalues --- 1000.000001000.000001000.000001000.000001000.00000
     Eigenvalues --- 1000.000001000.000001000.000001000.000001000.00000
     Eigenvalues --- 1000.00000
 RFO step:  Lambda=-9.94416320D-02 EMin= 2.30000000D-03
 Linear search not attempted -- first point.
 Maximum step size (   0.300) exceeded in Quadratic search.
    -- Step size scaled by   0.472
 Iteration  1 RMS(Cart)=  0.06972182 RMS(Int)=  0.00204984
 Iteration  2 RMS(Cart)=  0.00435056 RMS(Int)=  0.00000557
 Iteration  3 RMS(Cart)=  0.00000585 RMS(Int)=  0.00000328
 Iteration  4 RMS(Cart)=  0.00000000 RMS(Int)=  0.00000328
 Variable       Old X    -DE/DX   Delta X   Delta X   Delta X     New X
                                 (Linear)    (Quad)   (Total)
    R1        2.83942  -0.00688   0.00000  -0.00773  -0.00773   2.83169
    R2        2.22167  -0.04519   0.00000  -0.01667  -0.01667   2.20500
    R3        3.42234  -0.10473   0.00000  -0.21025  -0.21025   3.21209
    R4        2.04134  -0.00147   0.00000  -0.00151  -0.00151   2.03983
    R5        2.04600  -0.00104   0.00000  -0.00108  -0.00108   2.04492
    R6        2.04490  -0.00094   0.00000  -0.00097  -0.00097   2.04393
    R7        3.87120  -0.09417   0.00000  -0.19070  -0.19070   3.68050
    R8        1.88973  -0.00154   0.00000  -0.00126  -0.00126   1.88846
    R9        3.42234  -0.00920   0.00000  -0.01234  -0.01234   3.41000
   R10        2.83942  -0.00123   0.00000  -0.00138  -0.00138   2.83804
   R11        2.22167   0.00389   0.00000   0.00143   0.00143   2.22310
   R12        2.04490  -0.00017   0.00000  -0.00018  -0.00018   2.04472
   R13        2.04134   0.00053   0.00000   0.00055   0.00055   2.04189
   R14        2.04600  -0.00001   0.00000  -0.00001  -0.00001   2.04599
    A1        2.16999   0.02116   0.00000   0.02860   0.02860   2.19859
    A2        2.11111  -0.02845   0.00000  -0.03845  -0.03845   2.07266
    A3        2.00196   0.00729   0.00000   0.00986   0.00986   2.01182
    A4        1.88015  -0.00701   0.00000  -0.01311  -0.01312   1.86702
    A5        1.93256   0.00062   0.00000   0.00132   0.00132   1.93387
    A6        1.93062   0.00041   0.00000   0.00093   0.00092   1.93154
    A7        1.91723   0.00282   0.00000   0.00480   0.00479   1.92202
    A8        1.92453   0.00285   0.00000   0.00481   0.00480   1.92933
    A9        1.87916   0.00044   0.00000   0.00149   0.00149   1.88065
   A10        1.87705   0.04045   0.00000   0.05980   0.05980   1.93685
   A11        2.20307  -0.01626   0.00000  -0.02268  -0.02268   2.18039
   A12        2.20307  -0.02419   0.00000  -0.03711  -0.03712   2.16595
   A13        1.87705  -0.01627   0.00000  -0.02199  -0.02199   1.85506
   A14        2.11111  -0.00425   0.00000  -0.00573  -0.00573   2.10538
   A15        2.00195   0.00112   0.00000   0.00152   0.00152   2.00348
   A16        2.16999   0.00314   0.00000   0.00427   0.00426   2.17426
   A17        1.93061  -0.00113   0.00000  -0.00227  -0.00227   1.92834
   A18        1.88015   0.00100   0.00000   0.00217   0.00217   1.88232
   A19        1.93256  -0.00106   0.00000  -0.00206  -0.00206   1.93050
   A20        1.92452   0.00040   0.00000   0.00098   0.00099   1.92550
   A21        1.87916   0.00023   0.00000  -0.00023  -0.00024   1.87892
   A22        1.91724   0.00056   0.00000   0.00142   0.00142   1.91866
    D1       -0.03192  -0.00011   0.00000  -0.00055  -0.00055  -0.03247
    D2        2.06488  -0.00067   0.00000  -0.00209  -0.00208   2.06279
    D3       -2.13649   0.00054   0.00000   0.00123   0.00122  -2.13527
    D4        3.09180   0.00003   0.00000   0.00032   0.00032   3.09213
    D5       -1.09458  -0.00053   0.00000  -0.00122  -0.00121  -1.09579
    D6        0.98724   0.00069   0.00000   0.00210   0.00209   0.98933
    D7        0.04561  -0.00007   0.00000  -0.00013  -0.00013   0.04548
    D8       -3.09598   0.00017   0.00000   0.00097   0.00098  -3.09500
    D9       -3.11222   0.00024   0.00000   0.00090   0.00090  -3.11132
   D10        0.02937   0.00048   0.00000   0.00201   0.00201   0.03138
   D11        1.63730   0.00167   0.00000   0.00774   0.00774   1.64504
   D12       -1.50429   0.00143   0.00000   0.00664   0.00664  -1.49765
   D13        0.04673   0.00118   0.00000   0.00559   0.00559   0.05232
   D14       -3.11135   0.00214   0.00000   0.00981   0.00980  -3.10155
   D15        0.98729   0.00006   0.00000   0.00120   0.00120   0.98849
   D16        3.09184   0.00050   0.00000   0.00241   0.00241   3.09425
   D17       -1.09453   0.00119   0.00000   0.00428   0.00428  -1.09025
   D18       -2.13617  -0.00096   0.00000  -0.00341  -0.00340  -2.13957
   D19       -0.03161  -0.00052   0.00000  -0.00219  -0.00220  -0.03381
   D20        2.06520   0.00017   0.00000  -0.00032  -0.00033   2.06487
         Item               Value     Threshold  Converged?
 Maximum Force            0.104732     0.000450     NO 
 RMS     Force            0.021634     0.000300     NO 
 Maximum Displacement     0.185153     0.001800     NO 
 RMS     Displacement     0.072408     0.001200     NO 
 Predicted change in Energy=-4.034671D-02
 GradGradGradGradGradGradGradGradGradGradGradGradGradGradGradGradGradGrad

                          Input orientation:                          
 ---------------------------------------------------------------------
 Center     Atomic      Atomic             Coordinates (Angstroms)
 Number     Number       Type             X           Y           Z
 ---------------------------------------------------------------------
      1          6           0       -1.949974    0.000530    0.275210
      2          6           0       -1.710905    1.302127    0.978131
      3          1           0       -2.582343    1.497525    1.584421
      4          1           0       -0.828444    1.245636    1.601882
      5          1           0       -1.559147    2.099700    0.263495
      6          8           0       -2.889041   -0.681384    0.396267
      7          7           0       -0.782726   -0.560765   -0.825556
      8         16           0        0.749615    0.639716   -0.889277
      9          6           0        1.961905   -0.025102    0.270279
     10          6           0        1.698509   -1.311776    0.998688
     11          1           0        1.504821   -2.111746    0.296333
     12          1           0        2.570251   -1.539049    1.595292
     13          1           0        0.828952   -1.217355    1.636788
     14          8           0        2.941423    0.616805    0.381881
     15          1           0       -0.864913   -1.393792   -1.371427
 ---------------------------------------------------------------------
                    Distance matrix (angstroms):
                    1          2          3          4          5
     1  C    0.000000
     2  C    1.498468   0.000000
     3  H    2.086844   1.079431   0.000000
     4  H    2.137329   1.082126   1.771981   0.000000
     5  H    2.135275   1.081600   1.776060   1.747752   0.000000
     6  O    1.166837   2.379262   2.500683   3.068057   3.085559
     7  N    1.699766   2.754118   3.644607   3.026157   2.977740
     8  S    3.008716   3.159139   4.237566   3.010528   2.964932
     9  C    3.911966   3.968895   4.969462   3.342752   4.112498
    10  C    3.944236   4.296163   5.153732   3.645502   4.773993
    11  H    4.049415   4.739227   5.602760   4.291922   5.208192
    12  H    4.954326   5.175081   5.980813   4.393818   5.662695
    13  H    3.325592   3.637649   4.360075   2.968923   4.311822
    14  O    4.931220   4.740183   5.721343   4.011948   4.740056
    15  H    2.415141   3.674794   4.477312   3.975988   3.919110
                    6          7          8          9         10
     6  O    0.000000
     7  N    2.438024   0.000000
     8  S    4.078940   1.947636   0.000000
     9  C    4.896760   3.003463   1.804494   0.000000
    10  C    4.669682   3.169923   2.876306   1.501828   0.000000
    11  H    4.621899   2.982792   3.089749   2.136279   1.082021
    12  H    5.654832   4.249706   3.772905   2.101851   1.080520
    13  H    3.955961   3.015253   3.136242   2.138317   1.082690
    14  O    5.973258   4.088259   2.533848   1.176416   2.375860
    15  H    2.780173   0.999333   2.640895   3.543926   3.492178
                   11         12         13         14         15
    11  H    0.000000
    12  H    1.774942   0.000000
    13  H    1.747442   1.771252   0.000000
    14  O    3.084823   2.501568   3.066182   0.000000
    15  H    2.985385   4.541242   3.456829   4.648095   0.000000
 Stoichiometry    C4H7NO2S
 Framework group  C1[X(C4H7NO2S)]
 Deg. of freedom    39
 Full point group                 C1      NOp   1
 Largest Abelian subgroup         C1      NOp   1
 Largest concise Abelian subgroup C1      NOp   1
                         Standard orientation:                         
 ---------------------------------------------------------------------
 Center     Atomic      Atomic             Coordinates (Angstroms)
 Number     Number       Type             X           Y           Z
 ---------------------------------------------------------------------
      1          6           0        2.039214    0.113864    0.084090
      2          6           0        1.828143   -0.820579    1.236337
      3          1           0        2.716866   -0.773408    1.847171
      4          1           0        0.962356   -0.527230    1.815434
      5          1           0        1.662826   -1.829768    0.884107
      6          8           0        2.976424    0.786867   -0.089732
      7          7           0        0.838988    0.217585   -1.115036
      8         16           0       -0.686123   -0.910717   -0.674292
      9          6           0       -1.871474    0.150522    0.177127
     10          6           0       -1.597595    1.616703    0.352597
     11          1           0       -1.428383    2.087787   -0.606683
     12          1           0       -2.454583    2.057547    0.841218
     13          1           0       -0.710601    1.769359    0.954390
     14          8           0       -2.843157   -0.396652    0.551811
     15          1           0        0.900709    0.779306   -1.939249
 ---------------------------------------------------------------------
 Rotational constants (GHZ):      3.0448901      0.9193670      0.8778148
 Standard basis: 6-311+G(2df,p) (5D, 7F)
 There are   322 symmetry adapted basis functions of A   symmetry.
 Integral buffers will be    131072 words long.
 Raffenetti 1 integral format.
 Two-electron integral symmetry is turned on.
   322 basis functions,   486 primitive gaussians,   362 cartesian basis functions
    35 alpha electrons       35 beta electrons
       nuclear repulsion energy       432.5103733695 Hartrees.
 NAtoms=   15 NActive=   15 NUniq=   15 SFac= 7.50D-01 NAtFMM=   80 NAOKFM=F Big=F
 One-electron integrals computed using PRISM.
 NBasis=   322 RedAO= T  NBF=   322
 NBsUse=   322 1.00D-06 NBFU=   322
 Initial guess read from the read-write file.
 B after Tr=     0.000000    0.000000    0.000000
         Rot=    1.000000    0.000000    0.000000    0.000000 Ang=   0.00 deg.
 Initial guess orbital symmetries:
       Occupied  (A) (A) (A) (A) (A) (A) (A) (A) (A) (A) (A) (A)
                 (A) (A) (A) (A) (A) (A) (A) (A) (A) (A) (A) (A)
                 (A) (A) (A) (A) (A) (A) (A) (A) (A) (A) (A)
       Virtual   (A) (A) (A) (A) (A) (A) (A) (A) (A) (A) (A) (A)
                 (A) (A) (A) (A) (A) (A) (A) (A) (A) (A) (A) (A)
                 (A) (A) (A) (A) (A) (A) (A) (A) (A) (A) (A) (A)
                 (A) (A) (A) (A) (A) (A) (A) (A) (A) (A) (A) (A)
                 (A) (A) (A) (A) (A) (A) (A) (A) (A) (A) (A) (A)
                 (A) (A) (A) (A) (A) (A) (A) (A) (A) (A) (A) (A)
                 (A) (A) (A) (A) (A) (A) (A) (A) (A) (A) (A) (A)
                 (A) (A) (A) (A) (A) (A) (A) (A) (A) (A) (A) (A)
                 (A) (A) (A) (A) (A) (A) (A) (A) (A) (A) (A) (A)
                 (A) (A) (A) (A) (A) (A) (A) (A) (A) (A) (A) (A)
                 (A) (A) (A) (A) (A) (A) (A) (A) (A) (A) (A) (A)
                 (A) (A) (A) (A) (A) (A) (A) (A) (A) (A) (A) (A)
                 (A) (A) (A) (A) (A) (A) (A) (A) (A) (A) (A) (A)
                 (A) (A) (A) (A) (A) (A) (A) (A) (A) (A) (A) (A)
                 (A) (A) (A) (A) (A) (A) (A) (A) (A) (A) (A) (A)
                 (A) (A) (A) (A) (A) (A) (A) (A) (A) (A) (A) (A)
                 (A) (A) (A) (A) (A) (A) (A) (A) (A) (A) (A) (A)
                 (A) (A) (A) (A) (A) (A) (A) (A) (A) (A) (A) (A)
                 (A) (A) (A) (A) (A) (A) (A) (A) (A) (A) (A) (A)
                 (A) (A) (A) (A) (A) (A) (A) (A) (A) (A) (A) (A)
                 (A) (A) (A) (A) (A) (A) (A) (A) (A) (A) (A) (A)
                 (A) (A) (A) (A) (A) (A) (A) (A) (A) (A) (A) (A)
                 (A) (A) (A) (A) (A) (A) (A) (A) (A) (A) (A) (A)
                 (A) (A) (A) (A) (A) (A) (A) (A) (A) (A) (A)
 Harris functional with IExCor=  205 diagonalized for initial guess.
 ExpMin= 4.05D-02 ExpMax= 9.34D+04 ExpMxC= 3.17D+03 IAcc=2 IRadAn=         0 AccDes= 0.00D+00
 HarFok:  IExCor=  205 AccDes= 0.00D+00 IRadAn=         0 IDoV= 1
 ScaDFX=  1.000000  1.000000  1.000000  1.000000
 FoFCou: FMM=F IPFlag=           0 FMFlag=      100000 FMFlg1=           0
         NFxFlg=           0 DoJE=T BraDBF=F KetDBF=T FulRan=T
         Omega=  0.000000  0.000000  1.000000  0.000000  0.000000 ICntrl=     500 IOpCl=  0
         NMat0=    1 NMatS0=    1 NMatT0=    0 NMatD0=    1 NMtDS0=    0 NMtDT0=    0
         I1Cent=           4 NGrid=           0.
 Petite list used in FoFCou.
 Requested convergence on RMS density matrix=1.00D-08 within 128 cycles.
 Requested convergence on MAX density matrix=1.00D-06.
 Requested convergence on             energy=1.00D-06.
 No special actions if energy rises.
 Initial convergence to 1.0D-05 achieved.  Increase integral accuracy.
 SCF Done:  E(RHF) =  -757.313494573     A.U. after   14 cycles
             Convg  =    0.9334D-08             -V/T =  2.0010
 Calling FoFJK, ICntrl=      2127 FMM=F ISym2X=0 I1Cent= 0 IOpClX= 0 NMat=1 NMatS=1 NMatT=0.
 ***** Axes restored to original set *****
 -------------------------------------------------------------------
 Center     Atomic                   Forces (Hartrees/Bohr)
 Number     Number              X              Y              Z
 -------------------------------------------------------------------
      1        6           0.034001243   -0.058799544   -0.063653925
      2        6           0.009291291   -0.000373513   -0.005572919
      3        1          -0.000402030   -0.001440141   -0.000682208
      4        1          -0.000828536    0.000051619   -0.000233405
      5        1          -0.000384641   -0.000631834    0.000452678
      6        8           0.010560812    0.007912800   -0.000431309
      7        7           0.009123597    0.112896159    0.079832616
      8       16          -0.057678984   -0.063285600   -0.006843069
      9        6          -0.006819587   -0.001856213   -0.005003905
     10        6          -0.000072119    0.000126287    0.000088985
     11        1          -0.000180605    0.000248601   -0.000117889
     12        1           0.000089831   -0.000280118    0.000127010
     13        1          -0.000298019    0.000134832   -0.000542717
     14        8           0.002586815    0.002226331    0.001385894
     15        1           0.001010931    0.003070332    0.001194164
 -------------------------------------------------------------------
 Cartesian Forces:  Max     0.112896159 RMS     0.028143762

 GradGradGradGradGradGradGradGradGradGradGradGradGradGradGradGradGradGrad
 Berny optimization.
 Using GEDIIS/GDIIS optimizer.
 Internal  Forces:  Max     0.098877078 RMS     0.019222405
 Search for a local minimum.
 Step number   2 out of a maximum of   66
 All quantities printed in internal units (Hartrees-Bohrs-Radians)
 Mixed Optimization -- RFO/linear search
 Update second derivatives using D2CorX and points    1    2
 DE= -4.52D-02 DEPred=-4.03D-02 R= 1.12D+00
 SS=  1.41D+00  RLast= 3.00D-01 DXNew= 5.0454D-01 9.0000D-01
 Trust test= 1.12D+00 RLast= 3.00D-01 DXMaxT set to 5.05D-01
 Use linear search instead of GDIIS.
 Linear search step of   0.600 exceeds DXMaxT=   0.505 but not scaled.
 Quartic linear search produced a step of  2.00000.
 Iteration  1 RMS(Cart)=  0.09225109 RMS(Int)=  0.03980303
 Iteration  2 RMS(Cart)=  0.07145785 RMS(Int)=  0.00422505
 Iteration  3 RMS(Cart)=  0.00663539 RMS(Int)=  0.00002013
 Iteration  4 RMS(Cart)=  0.00000375 RMS(Int)=  0.00001987
 Iteration  5 RMS(Cart)=  0.00000000 RMS(Int)=  0.00001987
 Variable       Old X    -DE/DX   Delta X   Delta X   Delta X     New X
                                 (Linear)    (Quad)   (Total)
    R1        2.83169  -0.00369  -0.01546   0.00000  -0.01546   2.81624
    R2        2.20500  -0.01317  -0.03334   0.00000  -0.03334   2.17167
    R3        3.21209  -0.09888  -0.42050   0.00000  -0.42050   2.79159
    R4        2.03983  -0.00032  -0.00302   0.00000  -0.00302   2.03681
    R5        2.04492  -0.00081  -0.00215   0.00000  -0.00215   2.04277
    R6        2.04393  -0.00082  -0.00195   0.00000  -0.00195   2.04198
    R7        3.68050  -0.08735  -0.38140   0.00000  -0.38140   3.29910
    R8        1.88846  -0.00329  -0.00252   0.00000  -0.00252   1.88594
    R9        3.41000  -0.00598  -0.02469   0.00000  -0.02469   3.38531
   R10        2.83804  -0.00033  -0.00276   0.00000  -0.00276   2.83529
   R11        2.22310   0.00350   0.00287   0.00000   0.00287   2.22597
   R12        2.04472  -0.00007  -0.00036   0.00000  -0.00036   2.04436
   R13        2.04189   0.00020   0.00109   0.00000   0.00109   2.04298
   R14        2.04599  -0.00007  -0.00002   0.00000  -0.00002   2.04597
    A1        2.19859   0.00707   0.05721   0.00000   0.05721   2.25580
    A2        2.07266  -0.01584  -0.07690   0.00000  -0.07690   1.99576
    A3        2.01182   0.00877   0.01971   0.00000   0.01971   2.03153
    A4        1.86702  -0.00256  -0.02625   0.00000  -0.02631   1.84071
    A5        1.93387   0.00064   0.00263   0.00000   0.00260   1.93647
    A6        1.93154   0.00026   0.00184   0.00000   0.00180   1.93333
    A7        1.92202   0.00066   0.00958   0.00000   0.00953   1.93155
    A8        1.92933   0.00077   0.00960   0.00000   0.00953   1.93886
    A9        1.88065   0.00025   0.00298   0.00000   0.00296   1.88362
   A10        1.93685   0.04117   0.11959   0.00000   0.11959   2.05644
   A11        2.18039  -0.01967  -0.04536   0.00000  -0.04536   2.13502
   A12        2.16595  -0.02150  -0.07423   0.00000  -0.07423   2.09172
   A13        1.85506  -0.00947  -0.04397   0.00000  -0.04397   1.81109
   A14        2.10538  -0.00242  -0.01146   0.00000  -0.01147   2.09391
   A15        2.00348   0.00162   0.00304   0.00000   0.00303   2.00650
   A16        2.17426   0.00080   0.00853   0.00000   0.00851   2.18276
   A17        1.92834  -0.00044  -0.00454   0.00000  -0.00456   1.92379
   A18        1.88232   0.00064   0.00433   0.00000   0.00434   1.88665
   A19        1.93050  -0.00053  -0.00413   0.00000  -0.00414   1.92636
   A20        1.92550   0.00005   0.00197   0.00000   0.00198   1.92748
   A21        1.87892   0.00000  -0.00048   0.00000  -0.00051   1.87841
   A22        1.91866   0.00026   0.00284   0.00000   0.00285   1.92151
    D1       -0.03247  -0.00013  -0.00110   0.00000  -0.00110  -0.03357
    D2        2.06279  -0.00054  -0.00417   0.00000  -0.00416   2.05863
    D3       -2.13527   0.00036   0.00245   0.00000   0.00242  -2.13285
    D4        3.09213   0.00007   0.00064   0.00000   0.00066   3.09278
    D5       -1.09579  -0.00033  -0.00243   0.00000  -0.00241  -1.09820
    D6        0.98933   0.00057   0.00419   0.00000   0.00418   0.99351
    D7        0.04548  -0.00018  -0.00026   0.00000  -0.00026   0.04523
    D8       -3.09500   0.00046   0.00195   0.00000   0.00197  -3.09303
    D9       -3.11132   0.00002   0.00180   0.00000   0.00178  -3.10954
   D10        0.03138   0.00066   0.00402   0.00000   0.00401   0.03539
   D11        1.64504   0.00133   0.01547   0.00000   0.01546   1.66049
   D12       -1.49765   0.00070   0.01328   0.00000   0.01330  -1.48435
   D13        0.05232   0.00093   0.01118   0.00000   0.01120   0.06352
   D14       -3.10155   0.00146   0.01960   0.00000   0.01958  -3.08197
   D15        0.98849   0.00010   0.00240   0.00000   0.00242   0.99091
   D16        3.09425   0.00030   0.00482   0.00000   0.00482   3.09908
   D17       -1.09025   0.00071   0.00855   0.00000   0.00854  -1.08171
   D18       -2.13957  -0.00049  -0.00681   0.00000  -0.00680  -2.14637
   D19       -0.03381  -0.00029  -0.00439   0.00000  -0.00440  -0.03821
   D20        2.06487   0.00012  -0.00066   0.00000  -0.00068   2.06419
         Item               Value     Threshold  Converged?
 Maximum Force            0.098877     0.000450     NO 
 RMS     Force            0.019222     0.000300     NO 
 Maximum Displacement     0.417937     0.001800     NO 
 RMS     Displacement     0.150380     0.001200     NO 
 Predicted change in Energy=-7.689378D-02
 GradGradGradGradGradGradGradGradGradGradGradGradGradGradGradGradGradGrad

                          Input orientation:                          
 ---------------------------------------------------------------------
 Center     Atomic      Atomic             Coordinates (Angstroms)
 Number     Number       Type             X           Y           Z
 ---------------------------------------------------------------------
      1          6           0       -1.805675   -0.062230    0.266628
      2          6           0       -1.607986    1.255199    0.934653
      3          1           0       -2.480344    1.398581    1.551218
      4          1           0       -0.710848    1.252045    1.537698
      5          1           0       -1.514458    2.045381    0.203562
      6          8           0       -2.667878   -0.813338    0.381055
      7          7           0       -0.738662   -0.427514   -0.687475
      8         16           0        0.613919    0.663607   -0.854290
      9          6           0        1.845077   -0.010219    0.259009
     10          6           0        1.573900   -1.292838    0.988707
     11          1           0        1.348517   -2.083013    0.285013
     12          1           0        2.452297   -1.542070    1.567562
     13          1           0        0.717496   -1.181203    1.641628
     14          8           0        2.834455    0.622820    0.348012
     15          1           0       -0.771825   -1.264139   -1.230574
 ---------------------------------------------------------------------
                    Distance matrix (angstroms):
                    1          2          3          4          5
     1  C    0.000000
     2  C    1.490288   0.000000
     3  H    2.058960   1.077831   0.000000
     4  H    2.131099   1.080985   1.775605   0.000000
     5  H    2.128569   1.080569   1.779737   1.747882   0.000000
     6  O    1.149196   2.389286   2.509389   3.071416   3.087743
     7  N    1.477248   2.493701   3.373399   2.788025   2.740623
     8  S    2.763645   2.913273   3.987621   2.796940   2.749243
     9  C    3.651130   3.739173   4.729037   3.124277   3.938914
    10  C    3.668422   4.076741   4.898679   3.463797   4.614988
    11  H    3.746042   4.506284   5.327752   4.114949   5.024629
    12  H    4.691767   4.971034   5.742703   4.220599   5.519552
    13  H    3.083686   3.441473   4.109701   2.823413   4.178576
    14  O    4.691132   4.525409   5.504234   3.792156   4.577946
    15  H    2.180608   3.425557   4.212777   3.741421   3.682550
                    6          7          8          9         10
     6  O    0.000000
     7  N    2.238860   0.000000
     8  S    3.804949   1.745809   0.000000
     9  C    4.585483   2.783105   1.791431   0.000000
    10  C    4.311826   2.984345   2.854098   1.500369   0.000000
    11  H    4.213399   2.835970   3.062934   2.131600   1.081831
    12  H    5.306133   4.063206   3.756330   2.104185   1.081097
    13  H    3.631133   2.848362   3.105424   2.134075   1.082681
    14  O    5.686766   3.865566   2.525464   1.177934   2.381015
    15  H    2.528951   0.997998   2.403764   3.261801   3.229312
                   11         12         13         14         15
    11  H    0.000000
    12  H    1.776480   0.000000
    13  H    1.746955   1.773484   0.000000
    14  O    3.087638   2.513981   3.067484   0.000000
    15  H    2.731924   4.278057   3.236434   4.365524   0.000000
 Stoichiometry    C4H7NO2S
 Framework group  C1[X(C4H7NO2S)]
 Deg. of freedom    39
 Full point group                 C1      NOp   1
 Largest Abelian subgroup         C1      NOp   1
 Largest concise Abelian subgroup C1      NOp   1
                         Standard orientation:                         
 ---------------------------------------------------------------------
 Center     Atomic      Atomic             Coordinates (Angstroms)
 Number     Number       Type             X           Y           Z
 ---------------------------------------------------------------------
      1          6           0        1.882758    0.130864    0.064393
      2          6           0        1.681987   -0.790050    1.218761
      3          1           0        2.566803   -0.687356    1.825618
      4          1           0        0.799835   -0.518151    1.781262
      5          1           0        1.559238   -1.808630    0.879563
      6          8           0        2.758393    0.842209   -0.154472
      7          7           0        0.798457    0.096021   -0.938274
      8         16           0       -0.573611   -0.935247   -0.619269
      9          6           0       -1.767481    0.165451    0.137279
     10          6           0       -1.459969    1.627997    0.269565
     11          1           0       -1.240107    2.053186   -0.700607
     12          1           0       -2.320365    2.113720    0.708385
     13          1           0       -0.589757    1.774947    0.896728
     14          8           0       -2.763591   -0.351655    0.494903
     15          1           0        0.830739    0.634087   -1.778179
 ---------------------------------------------------------------------
 Rotational constants (GHZ):      3.2176719      1.0508754      0.9747362
 Standard basis: 6-311+G(2df,p) (5D, 7F)
 There are   322 symmetry adapted basis functions of A   symmetry.
 Integral buffers will be    131072 words long.
 Raffenetti 1 integral format.
 Two-electron integral symmetry is turned on.
   322 basis functions,   486 primitive gaussians,   362 cartesian basis functions
    35 alpha electrons       35 beta electrons
       nuclear repulsion energy       451.9975322256 Hartrees.
 NAtoms=   15 NActive=   15 NUniq=   15 SFac= 7.50D-01 NAtFMM=   80 NAOKFM=F Big=F
 One-electron integrals computed using PRISM.
 NBasis=   322 RedAO= T  NBF=   322
 NBsUse=   322 1.00D-06 NBFU=   322
 Initial guess read from the read-write file.
 B after Tr=     0.000000    0.000000    0.000000
         Rot=    1.000000    0.000000    0.000000    0.000000 Ang=   0.00 deg.
 Initial guess orbital symmetries:
       Occupied  (A) (A) (A) (A) (A) (A) (A) (A) (A) (A) (A) (A)
                 (A) (A) (A) (A) (A) (A) (A) (A) (A) (A) (A) (A)
                 (A) (A) (A) (A) (A) (A) (A) (A) (A) (A) (A)
       Virtual   (A) (A) (A) (A) (A) (A) (A) (A) (A) (A) (A) (A)
                 (A) (A) (A) (A) (A) (A) (A) (A) (A) (A) (A) (A)
                 (A) (A) (A) (A) (A) (A) (A) (A) (A) (A) (A) (A)
                 (A) (A) (A) (A) (A) (A) (A) (A) (A) (A) (A) (A)
                 (A) (A) (A) (A) (A) (A) (A) (A) (A) (A) (A) (A)
                 (A) (A) (A) (A) (A) (A) (A) (A) (A) (A) (A) (A)
                 (A) (A) (A) (A) (A) (A) (A) (A) (A) (A) (A) (A)
                 (A) (A) (A) (A) (A) (A) (A) (A) (A) (A) (A) (A)
                 (A) (A) (A) (A) (A) (A) (A) (A) (A) (A) (A) (A)
                 (A) (A) (A) (A) (A) (A) (A) (A) (A) (A) (A) (A)
                 (A) (A) (A) (A) (A) (A) (A) (A) (A) (A) (A) (A)
                 (A) (A) (A) (A) (A) (A) (A) (A) (A) (A) (A) (A)
                 (A) (A) (A) (A) (A) (A) (A) (A) (A) (A) (A) (A)
                 (A) (A) (A) (A) (A) (A) (A) (A) (A) (A) (A) (A)
                 (A) (A) (A) (A) (A) (A) (A) (A) (A) (A) (A) (A)
                 (A) (A) (A) (A) (A) (A) (A) (A) (A) (A) (A) (A)
                 (A) (A) (A) (A) (A) (A) (A) (A) (A) (A) (A) (A)
                 (A) (A) (A) (A) (A) (A) (A) (A) (A) (A) (A) (A)
                 (A) (A) (A) (A) (A) (A) (A) (A) (A) (A) (A) (A)
                 (A) (A) (A) (A) (A) (A) (A) (A) (A) (A) (A) (A)
                 (A) (A) (A) (A) (A) (A) (A) (A) (A) (A) (A) (A)
                 (A) (A) (A) (A) (A) (A) (A) (A) (A) (A) (A) (A)
                 (A) (A) (A) (A) (A) (A) (A) (A) (A) (A) (A) (A)
                 (A) (A) (A) (A) (A) (A) (A) (A) (A) (A) (A)
 Harris functional with IExCor=  205 diagonalized for initial guess.
 ExpMin= 4.05D-02 ExpMax= 9.34D+04 ExpMxC= 3.17D+03 IAcc=2 IRadAn=         0 AccDes= 0.00D+00
 HarFok:  IExCor=  205 AccDes= 0.00D+00 IRadAn=         0 IDoV= 1
 ScaDFX=  1.000000  1.000000  1.000000  1.000000
 FoFCou: FMM=F IPFlag=           0 FMFlag=      100000 FMFlg1=           0
         NFxFlg=           0 DoJE=T BraDBF=F KetDBF=T FulRan=T
         Omega=  0.000000  0.000000  1.000000  0.000000  0.000000 ICntrl=     500 IOpCl=  0
         NMat0=    1 NMatS0=    1 NMatT0=    0 NMatD0=    1 NMtDS0=    0 NMtDT0=    0
         I1Cent=           4 NGrid=           0.
 Petite list used in FoFCou.
 Requested convergence on RMS density matrix=1.00D-08 within 128 cycles.
 Requested convergence on MAX density matrix=1.00D-06.
 Requested convergence on             energy=1.00D-06.
 No special actions if energy rises.
 Initial convergence to 1.0D-05 achieved.  Increase integral accuracy.
 SCF Done:  E(RHF) =  -757.376969984     A.U. after   15 cycles
             Convg  =    0.6484D-08             -V/T =  2.0001
 Calling FoFJK, ICntrl=      2127 FMM=F ISym2X=0 I1Cent= 0 IOpClX= 0 NMat=1 NMatS=1 NMatT=0.
 ***** Axes restored to original set *****
 -------------------------------------------------------------------
 Center     Atomic                   Forces (Hartrees/Bohr)
 Number     Number              X              Y              Z
 -------------------------------------------------------------------
      1        6           0.082516798   -0.004032436   -0.061664473
      2        6          -0.011786589    0.000181675    0.008279052
      3        1           0.000009201    0.004846895    0.002995104
      4        1          -0.001887809    0.000823696    0.001512576
      5        1          -0.001873890    0.000321653    0.001494560
      6        8          -0.053064912   -0.029278200    0.018231885
      7        7           0.008764490    0.059137603    0.033138740
      8       16          -0.021165107   -0.038184250   -0.007862256
      9        6          -0.001928439    0.006016090   -0.004297519
     10        6           0.001046920   -0.000290652    0.000793965
     11        1           0.000404173   -0.000904918    0.000443108
     12        1          -0.000556968   -0.000168403   -0.000261742
     13        1           0.000274796   -0.000548775    0.000378811
     14        8           0.004894806   -0.001134145    0.003002021
     15        1          -0.005647471    0.003214169    0.003816167
 -------------------------------------------------------------------
 Cartesian Forces:  Max     0.082516798 RMS     0.021948949

 GradGradGradGradGradGradGradGradGradGradGradGradGradGradGradGradGradGrad
 Berny optimization.
 Using GEDIIS/GDIIS optimizer.
 Internal  Forces:  Max     0.060764269 RMS     0.014135872
 Search for a local minimum.
 Step number   3 out of a maximum of   66
 All quantities printed in internal units (Hartrees-Bohrs-Radians)
 Mixed Optimization -- RFO/linear search
 Update second derivatives using D2CorX and points    2    3
 Use linear search instead of GDIIS.
     Eigenvalues ---    0.00230   0.00230   0.00230   0.00230   0.00566
     Eigenvalues ---    0.00625   0.00732   0.00732   0.07344   0.07435
     Eigenvalues ---    0.07561   0.07824   0.10507   0.13512   0.15999
     Eigenvalues ---    0.16000   0.16000   0.16000   0.16000   0.16000
     Eigenvalues ---    0.16206   0.21397   0.24949   0.25000   0.25000
     Eigenvalues ---    0.25000   0.25257   0.30465   0.32110   0.33546
     Eigenvalues ---    0.35670   0.35671   0.35740   0.35742   0.35966
     Eigenvalues ---    0.36006   0.47694   1.18041   1.258391000.00000
     Eigenvalues --- 1000.000001000.000001000.000001000.000001000.00000
     Eigenvalues --- 1000.000001000.000001000.000001000.000001000.00000
     Eigenvalues --- 1000.000001000.000001000.000001000.000001000.00000
     Eigenvalues --- 1000.00000
 RFO step:  Lambda=-3.04449628D-02 EMin= 2.29977882D-03
 Quartic linear search produced a step of  0.28259.
 Iteration  1 RMS(Cart)=  0.16977803 RMS(Int)=  0.01363038
 Iteration  2 RMS(Cart)=  0.02190487 RMS(Int)=  0.00017347
 Iteration  3 RMS(Cart)=  0.00022032 RMS(Int)=  0.00012951
 Iteration  4 RMS(Cart)=  0.00000002 RMS(Int)=  0.00012951
 Variable       Old X    -DE/DX   Delta X   Delta X   Delta X     New X
                                 (Linear)    (Quad)   (Total)
    R1        2.81624   0.00980  -0.00437   0.03458   0.03021   2.84644
    R2        2.17167   0.06076  -0.00942   0.05655   0.04713   2.21880
    R3        2.79159  -0.03559  -0.11883  -0.11554  -0.23437   2.55723
    R4        2.03681   0.00235  -0.00085   0.00715   0.00629   2.04310
    R5        2.04277  -0.00073  -0.00061  -0.00211  -0.00272   2.04005
    R6        2.04198  -0.00094  -0.00055  -0.00275  -0.00330   2.03868
    R7        3.29910  -0.03446  -0.10778  -0.12429  -0.23206   3.06704
    R8        1.88594  -0.00458  -0.00071  -0.01001  -0.01072   1.87522
    R9        3.38531   0.00176  -0.00698   0.01018   0.00320   3.38851
   R10        2.83529   0.00208  -0.00078   0.00713   0.00635   2.84163
   R11        2.22597   0.00373   0.00081   0.00374   0.00456   2.23053
   R12        2.04436   0.00029  -0.00010   0.00091   0.00080   2.04517
   R13        2.04298  -0.00055   0.00031  -0.00171  -0.00140   2.04158
   R14        2.04597  -0.00005   0.00000  -0.00011  -0.00011   2.04586
    A1        2.25580  -0.02946   0.01617  -0.12921  -0.11305   2.14275
    A2        1.99576   0.02050  -0.02173   0.09544   0.07371   2.06947
    A3        2.03153   0.00896   0.00557   0.03381   0.03938   2.07092
    A4        1.84071   0.00663  -0.00743   0.04513   0.03753   1.87824
    A5        1.93647   0.00113   0.00073   0.00677   0.00739   1.94386
    A6        1.93333   0.00039   0.00051   0.00234   0.00276   1.93610
    A7        1.93155  -0.00404   0.00269  -0.02688  -0.02438   1.90717
    A8        1.93886  -0.00382   0.00269  -0.02591  -0.02335   1.91551
    A9        1.88362  -0.00029   0.00084  -0.00145  -0.00065   1.88296
   A10        2.05644   0.04613   0.03379   0.19640   0.23003   2.28647
   A11        2.13502  -0.02852  -0.01282  -0.13428  -0.14725   1.98777
   A12        2.09172  -0.01761  -0.02098  -0.06222  -0.08336   2.00836
   A13        1.81109   0.01201  -0.01243   0.05615   0.04372   1.85481
   A14        2.09391   0.00055  -0.00324   0.00333   0.00003   2.09394
   A15        2.00650   0.00474   0.00086   0.01960   0.02040   2.02690
   A16        2.18276  -0.00529   0.00240  -0.02301  -0.02066   2.16210
   A17        1.92379   0.00113  -0.00129   0.00860   0.00729   1.93107
   A18        1.88665  -0.00009   0.00123  -0.00304  -0.00181   1.88485
   A19        1.92636   0.00083  -0.00117   0.00688   0.00568   1.93204
   A20        1.92748  -0.00083   0.00056  -0.00715  -0.00658   1.92090
   A21        1.87841  -0.00047  -0.00014   0.00032   0.00012   1.87853
   A22        1.92151  -0.00057   0.00080  -0.00556  -0.00475   1.91675
    D1       -0.03357  -0.00019  -0.00031  -0.00157  -0.00182  -0.03539
    D2        2.05863  -0.00044  -0.00118  -0.00305  -0.00406   2.05457
    D3       -2.13285   0.00019   0.00068   0.00112   0.00186  -2.13099
    D4        3.09278   0.00016   0.00019   0.00268   0.00274   3.09552
    D5       -1.09820  -0.00009  -0.00068   0.00120   0.00049  -1.09770
    D6        0.99351   0.00054   0.00118   0.00537   0.00642   0.99993
    D7        0.04523  -0.00015  -0.00007  -0.00875  -0.00877   0.03646
    D8       -3.09303   0.00097   0.00056   0.02685   0.02705  -3.06597
    D9       -3.10954  -0.00022   0.00050  -0.00669  -0.00583  -3.11537
   D10        0.03539   0.00090   0.00113   0.02892   0.02999   0.06538
   D11        1.66049   0.00061   0.00437  -0.00520  -0.00042   1.66007
   D12       -1.48435  -0.00052   0.00376  -0.04004  -0.03669  -1.52105
   D13        0.06352   0.00043   0.00317  -0.00546  -0.00212   0.06140
   D14       -3.08197   0.00015   0.00553  -0.02621  -0.02085  -3.10281
   D15        0.99091   0.00027   0.00068  -0.00520  -0.00444   0.98647
   D16        3.09908  -0.00012   0.00136  -0.01068  -0.00926   3.08981
   D17       -1.08171  -0.00037   0.00241  -0.01526  -0.01281  -1.09452
   D18       -2.14637   0.00055  -0.00192   0.01767   0.01572  -2.13066
   D19       -0.03821   0.00016  -0.00124   0.01219   0.01090  -0.02731
   D20        2.06419  -0.00009  -0.00019   0.00761   0.00734   2.07154
         Item               Value     Threshold  Converged?
 Maximum Force            0.060764     0.000450     NO 
 RMS     Force            0.014136     0.000300     NO 
 Maximum Displacement     0.427616     0.001800     NO 
 RMS     Displacement     0.176961     0.001200     NO 
 Predicted change in Energy=-2.789984D-02
 GradGradGradGradGradGradGradGradGradGradGradGradGradGradGradGradGradGrad

                          Input orientation:                          
 ---------------------------------------------------------------------
 Center     Atomic      Atomic             Coordinates (Angstroms)
 Number     Number       Type             X           Y           Z
 ---------------------------------------------------------------------
      1          6           0       -1.726704   -0.027580    0.184332
      2          6           0       -1.736451    1.258054    0.969130
      3          1           0       -2.665426    1.297580    1.520814
      4          1           0       -0.908972    1.302972    1.660999
      5          1           0       -1.665890    2.111023    0.312377
      6          8           0       -2.594774   -0.815844    0.245081
      7          7           0       -0.678632   -0.278268   -0.634154
      8         16           0        0.674704    0.570227   -0.921710
      9          6           0        1.932842   -0.108563    0.160708
     10          6           0        1.617580   -1.296967    1.026446
     11          1           0        1.270205   -2.126337    0.424155
     12          1           0        2.518747   -1.573992    1.554013
     13          1           0        0.835898   -1.056897    1.735959
     14          8           0        2.989906    0.415182    0.121727
     15          1           0       -0.775050   -1.109521   -1.167469
 ---------------------------------------------------------------------
                    Distance matrix (angstroms):
                    1          2          3          4          5
     1  C    0.000000
     2  C    1.506272   0.000000
     3  H    2.103195   1.081162   0.000000
     4  H    2.149325   1.079547   1.762048   0.000000
     5  H    2.143296   1.078823   1.766658   1.744893   0.000000
     6  O    1.174136   2.358393   2.469625   3.055509   3.071467
     7  N    1.353226   2.459631   3.327843   2.796623   2.753055
     8  S    2.710620   3.140390   4.201361   3.116942   3.061928
     9  C    3.660518   3.998111   4.997118   3.509873   4.230891
    10  C    3.674879   4.216745   5.031919   3.680462   4.785966
    11  H    3.666573   4.559723   5.330577   4.247205   5.156391
    12  H    4.721364   5.144830   5.926438   4.476340   5.712459
    13  H    3.167644   3.544573   4.224821   2.935842   4.280332
    14  O    4.737760   4.875139   5.892271   4.284714   4.958696
    15  H    1.975756   3.330880   4.073638   3.719985   3.654511
                    6          7          8          9         10
     6  O    0.000000
     7  N    2.175694   0.000000
     8  S    3.737924   1.623006   0.000000
     9  C    4.583303   2.735032   1.793125   0.000000
    10  C    4.311141   3.011300   2.858451   1.503727   0.000000
    11  H    4.085036   2.886753   3.072040   2.140071   1.082256
    12  H    5.332559   4.085365   3.758640   2.105247   1.080357
    13  H    3.748377   2.918476   3.120372   2.141037   1.082622
    14  O    5.720078   3.809252   2.544202   1.180345   2.373447
    15  H    2.322270   0.992323   2.232429   3.177837   3.251627
                   11         12         13         14         15
    11  H    0.000000
    12  H    1.772152   0.000000
    13  H    1.747328   1.769879   0.000000
    14  O    3.083530   2.496046   3.067982   0.000000
    15  H    2.783926   4.297824   3.320816   4.261648   0.000000
 Stoichiometry    C4H7NO2S
 Framework group  C1[X(C4H7NO2S)]
 Deg. of freedom    39
 Full point group                 C1      NOp   1
 Largest Abelian subgroup         C1      NOp   1
 Largest concise Abelian subgroup C1      NOp   1
                         Standard orientation:                         
 ---------------------------------------------------------------------
 Center     Atomic      Atomic             Coordinates (Angstroms)
 Number     Number       Type             X           Y           Z
 ---------------------------------------------------------------------
      1          6           0        1.846415    0.128717   -0.029339
      2          6           0        1.942098   -0.533724    1.320059
      3          1           0        2.896352   -0.263288    1.750379
      4          1           0        1.149755   -0.206370    1.976148
      5          1           0        1.874410   -1.606513    1.228400
      6          8           0        2.685193    0.832979   -0.452496
      7          7           0        0.752804   -0.107941   -0.790410
      8         16           0       -0.578484   -0.988698   -0.497003
      9          6           0       -1.810718    0.155440    0.125770
     10          6           0       -1.502124    1.625337    0.199020
     11          1           0       -1.215255    2.003882   -0.773445
     12          1           0       -2.388060    2.135330    0.548588
     13          1           0       -0.679855    1.810293    0.878531
     14          8           0       -2.847385   -0.315539    0.436756
     15          1           0        0.792279    0.307275   -1.690822
 ---------------------------------------------------------------------
 Rotational constants (GHZ):      3.3399040      1.0195021      0.9491135
 Standard basis: 6-311+G(2df,p) (5D, 7F)
 There are   322 symmetry adapted basis functions of A   symmetry.
 Integral buffers will be    131072 words long.
 Raffenetti 1 integral format.
 Two-electron integral symmetry is turned on.
   322 basis functions,   486 primitive gaussians,   362 cartesian basis functions
    35 alpha electrons       35 beta electrons
       nuclear repulsion energy       453.4892493467 Hartrees.
 NAtoms=   15 NActive=   15 NUniq=   15 SFac= 7.50D-01 NAtFMM=   80 NAOKFM=F Big=F
 One-electron integrals computed using PRISM.
 NBasis=   322 RedAO= T  NBF=   322
 NBsUse=   322 1.00D-06 NBFU=   322
 Initial guess read from the read-write file.
 B after Tr=     0.000000    0.000000    0.000000
         Rot=    1.000000    0.000000    0.000000    0.000000 Ang=   0.00 deg.
 Initial guess orbital symmetries:
       Occupied  (A) (A) (A) (A) (A) (A) (A) (A) (A) (A) (A) (A)
                 (A) (A) (A) (A) (A) (A) (A) (A) (A) (A) (A) (A)
                 (A) (A) (A) (A) (A) (A) (A) (A) (A) (A) (A)
       Virtual   (A) (A) (A) (A) (A) (A) (A) (A) (A) (A) (A) (A)
                 (A) (A) (A) (A) (A) (A) (A) (A) (A) (A) (A) (A)
                 (A) (A) (A) (A) (A) (A) (A) (A) (A) (A) (A) (A)
[...]
 ! D11   D(1,7,8,9)             98.6608         -DE/DX =    0.0                 !
 ! D12   D(15,7,8,9)           -92.1601         -DE/DX =    0.0                 !
 ! D13   D(7,8,9,10)             1.9885         -DE/DX =    0.0                 !
 ! D14   D(7,8,9,14)          -178.777          -DE/DX =    0.0                 !
 ! D15   D(8,9,10,11)           58.8293         -DE/DX =    0.0                 !
 ! D16   D(8,9,10,12)          179.1001         -DE/DX =    0.0                 !
 ! D17   D(8,9,10,13)          -60.4796         -DE/DX =    0.0                 !
 ! D18   D(14,9,10,11)        -120.3358         -DE/DX =    0.0                 !
 ! D19   D(14,9,10,12)          -0.0651         -DE/DX =    0.0                 !
 ! D20   D(14,9,10,13)         120.3552         -DE/DX =    0.0                 !
 --------------------------------------------------------------------------------
 GradGradGradGradGradGradGradGradGradGradGradGradGradGradGradGradGradGrad

 1\1\GINC-C080\Freq\RHF\6-311+G(2df,p)\C4H7N1O2S1\RMCCULL2HS2\29-May-20
 15\0\\#N Geom=AllCheck Guess=TCheck SCRF=Check GenChk RHF/6-311+G(2df,
 p) Freq\\title\\0,1\C,-1.7646013665,-0.0307602828,0.1633653288\C,-1.69
 69125036,1.2314386491,0.9816411737\H,-2.6036768291,1.2989786868,1.5616
 544124\H,-0.8387437996,1.2268663265,1.6424633801\H,-1.6066097099,2.097
 8019438,0.3378329807\O,-2.7011560932,-0.7612179572,0.1820362217\N,-0.6
 861106441,-0.3412663964,-0.6393802702\S,0.677185044,0.5773867715,-0.92
 72206256\C,1.9337869849,-0.0890706358,0.1676228553\C,1.614386269,-1.27
 16464021,1.0411009149\H,1.3103392846,-2.1175736257,0.4370625313\H,2.50
 29381718,-1.5198374812,1.6029812113\H,0.8018436562,-1.0422324986,1.718
 8085995\O,2.9821866685,0.4469098139,0.1312270806\H,-0.8368715602,-1.14
 47076149,-1.2087885047\\Version=EM64L-G09RevA.02\State=1-A\HF=-757.395
 3764\RMSD=2.213e-09\RMSF=7.490e-06\ZeroPoint=0.1199024\Thermal=0.12909
 52\Dipole=0.0067629,-0.1837476,0.298737\DipoleDeriv=2.2231985,0.401892
 ,-0.4782455,0.1373834,0.9674466,0.3285641,-0.9022763,0.227728,0.764536
 9,0.051997,-0.0320738,-0.0041592,-0.0127189,-0.1368402,-0.1333989,0.02
 99166,-0.1271974,0.0080926,-0.0383882,0.0304592,0.0878755,-0.0136095,0
 .0738432,-0.0065176,0.0679416,-0.0302842,0.0385289,-0.0443214,0.017123
 2,-0.0815565,0.0304646,0.044687,0.0145284,-0.0887244,-0.0112589,0.0280
 339,0.0944136,-0.0118973,0.0162238,-0.0248658,-0.0074949,0.0354917,0.0
 093127,0.064504,-0.0150312,-1.5306215,-0.412966,0.1485394,-0.6101269,-
 0.8959606,-0.0536164,0.1656599,-0.101923,-0.5374025,-1.4310631,-0.0516
 249,0.1768581,0.1216123,-0.4332172,-0.0441708,0.6929871,0.1235505,-0.6
 156076,0.3143025,0.2848648,-0.2177584,0.6976508,0.1474978,-0.0565843,-
 0.4383169,-0.0692964,-0.0826894,1.9338956,0.0137703,0.5660271,0.181968
 4,0.6556309,-0.2662219,0.5151541,-0.3620362,0.6222775,-0.0595702,-0.00
 48318,-0.053819,-0.0722528,-0.0949377,0.1414097,-0.0137129,0.1742354,-
 0.0288694,0.0815402,-0.0342251,-0.032759,-0.0409951,0.0012626,-0.02349
 27,-0.0237671,-0.0699468,-0.0125646,-0.0266247,0.0375588,-0.0736564,0.
 0316169,0.0423619,0.0545677,-0.0718612,0.0563217,0.0229942,-0.0017235,
 0.0360058,0.075456,0.0440805,0.02966,-0.0385437,0.0751541,0.0022558,0.
 0325152,-1.6341401,-0.2271064,-0.20453,-0.4105463,-0.5973995,0.0581421
 ,-0.1532574,0.1203317,-0.4722306,0.0671055,-0.0469487,0.075504,-0.0596
 615,0.20346,-0.0101574,0.1357901,0.0030159,0.2474163\Polar=93.4399411,
 4.2569222,66.5730549,0.4027413,-2.6307481,63.1912994\PolarDeriv=5.4344
 616,2.3980767,0.1573114,0.1610402,-0.1717452,-0.8217981,5.1364888,2.65
 17748,0.1834013,-0.4252672,-2.4451842,-0.3948789,1.3589499,0.4207946,-
 1.1252894,0.1594048,-0.6648126,-0.1264195,2.3608037,-1.3646568,-0.6809
 642,-5.2111374,0.5379813,0.0788104,-0.4612015,-1.2044099,-0.8515497,-0
 .2919141,3.6542783,0.5417599,-5.0492376,0.0941493,4.1322479,0.1127984,
 -0.5287001,-0.4623283,-6.09071,1.3851959,-1.274078,3.2242865,-0.846434
 1,-2.3178446,0.436396,-1.0875253,0.4621077,-0.2579465,0.3839211,0.1274
 456,2.9917943,-0.7316554,0.3536209,-2.4815313,0.7709122,2.94116,3.7765
 616,0.0897759,1.3338563,2.0915003,0.5359791,2.1570077,-0.0156034,0.942
 2602,0.5383223,0.1180649,0.3627447,0.1338225,2.2188653,0.1697402,0.425
 2105,1.6124316,0.7027325,3.4699996,-0.0171561,1.2001246,0.1824465,-0.0
 640685,0.0334947,0.1899425,1.245862,-0.247951,5.9734143,-0.0524916,-1.
 7282324,1.4075871,-0.3526315,0.1711174,-2.8352058,0.1223669,1.5452427,
 -1.900539,-13.9712473,-3.8302987,-1.9553525,0.7724644,0.1333669,-1.056
 5621,-6.8601674,-4.533664,-4.8643765,1.1254823,0.6926652,-1.0546403,-0
 .7397935,0.0949673,0.3732093,-2.6933873,-1.6538789,0.2273396,-2.978635
 2,-0.6805596,1.3498415,0.2497583,0.213468,0.4235922,0.9040162,0.122184
 2,1.4873977,0.7109869,2.1062462,0.4598037,1.3241092,0.7917785,1.855075
 6,-0.6873691,0.6529892,-0.4473332,-1.2918172,4.1164454,-1.1852596,-4.3
 137327,1.1542902,-1.9744426,2.6285583,-0.2578836,5.0879969,-0.667367,-
 3.1842247,2.6967342,-2.8529582,0.9218678,-2.9364882,-0.7921895,3.11759
 48,-8.4122394,-0.6771886,-5.529916,2.8740676,2.5225271,-3.1580208,5.11
 78938,-4.1657928,-1.138163,0.5629487,0.0033219,-1.7380015,0.7617361,3.
 2913333,-1.1776333,0.1902332,1.2360669,-0.3392439,1.6761777,-2.3770936
 ,2.6169162,-0.2735984,-5.3701355,2.9192821,-1.0287075,1.0680035,1.7168
 095,0.2407059,0.7903229,3.6942418,-1.7458648,-4.4746625,1.3236539,3.74
 41535,0.4051651,-0.2981766,-0.3755414,-0.6304167,-1.3030106,-1.2411598
 ,0.0421685,-0.2676444,-0.5233356,-1.0626755,-0.6329372,-6.0301421,-0.3
 148918,-1.3655987,-1.1623929,-0.3015798,-0.3631619,-2.7808229,-0.37747
 08,-1.3060003,-1.519773,5.7831797,-2.2685165,2.012036,3.3818494,-1.666
 0129,2.7711027,-0.9861092,1.3372753,-1.3251232,-0.6913314,0.6850873,-0
 .3555426,2.5340188,-1.102085,0.6598513,2.3616933,-1.2486291,3.1330516,
 -3.2910063,0.1025275,-1.2719202,2.3513488,0.0972275,-2.3036777,0.56694
 53,-0.9536663,0.1873817,-0.3616229,0.3752018,0.5994951,2.1075455,-0.24
 32058,0.3984834,-1.7850555,-0.1915781,3.7974345,14.6552964,3.9594546,0
 .6995797,0.6844667,0.9494889,-0.4180814,3.9229266,4.4786864,2.4287977,
 0.4569857,0.8722725,0.0354681,-0.3188445,0.3394767,0.1017024,3.1555328
 ,1.1139987,0.3590497,-0.6850319,-0.8915585,-0.7268063,-0.522336,-0.464
 7212,-0.2938999,-2.3576468,-1.1927901,-4.0812828,-0.1423322,-2.3654175
 ,-2.0505329,-1.7369086,-0.7098044,-2.5559817,-0.3484564,-1.6724504,-2.
 3600389\HyperPolar=-4.379017,18.1335246,11.3574335,28.052571,56.934374
 7,-24.1304748,-39.6439276,11.5804956,4.0198235,-39.6568607\PG=C01 [X(C
 4H7N1O2S1)]\NImag=0\\0.84316012,0.31888367,0.77370921,-0.09520712,0.16
 381366,0.44650364,-0.10247577,0.01157851,0.00185581,0.66083836,0.00737
 767,-0.18658212,-0.05534275,0.01093064,0.55990469,-0.00096689,-0.05775
 843,-0.15103313,-0.03096493,-0.02641362,0.59571417,-0.00053720,-0.0020
 3155,-0.00211574,-0.26808228,0.01806854,0.13607833,0.28532807,0.032401
 42,-0.00183349,-0.01913694,0.01033121,-0.05761649,-0.00603792,-0.01541
 073,0.05938216,0.02119846,0.00135371,-0.01310183,0.13078939,-0.0105339
 4,-0.14243497,-0.14678368,0.01294498,0.14916604,-0.00137174,-0.0023116
 2,0.00210332,-0.23402886,0.00371192,-0.13771666,-0.02042372,0.00073117
 ,-0.01962331,0.25259400,-0.03029373,0.00815020,-0.01878475,0.00258339,
 -0.05234798,-0.00494820,0.00164974,-0.00082011,0.00167800,-0.00290906,
 0.05387074,-0.01741091,0.00831061,-0.01079183,-0.13602967,-0.00349242,
 -0.16222609,0.01522793,0.00003755,0.01594756,0.15255591,0.00167966,0.1
 6967501,-0.00278073,-0.00276824,-0.00055019,-0.05373277,-0.01795366,0.
 01863403,0.00086766,-0.02576234,0.01686689,0.00284107,0.02503068,-0.01
 707916,0.05340136,-0.00245994,-0.02180191,0.02692523,-0.01578558,-0.24
 021759,0.13484995,-0.00070639,0.00468255,-0.00281706,0.00059256,0.0015
 5322,-0.00030890,0.02108206,0.25718436,0.00009643,-0.01629831,0.019957
 06,0.01739078,0.13351938,-0.15536861,-0.00057827,0.01412611,-0.0105323
 4,0.00251305,0.01883442,-0.01325460,-0.01721757,-0.14874098,0.16624482
 ,-0.53909996,-0.36904360,-0.00655801,-0.00258741,-0.02268968,0.0042760
 7,0.00209273,-0.00066936,-0.00220719,0.00130123,0.00071602,0.00037280,
 0.00014004,-0.00245374,-0.00349116,0.64534399,-0.34606551,-0.41450002,
 -0.02659672,-0.04888499,-0.02477785,-0.01186546,-0.00043502,0.00266009
 ,0.00248785,-0.00074689,-0.00924821,-0.00425546,-0.00090950,-0.0030458
 9,-0.00197234,0.42938155,0.41724003,0.00877911,-0.01467761,-0.11103099
 ,-0.01369866,-0.02619449,0.02189340,-0.00196047,0.00293677,0.00220814,
 -0.00136291,0.00016738,0.00005090,-0.00186082,-0.00669462,-0.00456627,
 -0.04171798,0.02147000,0.07648475,-0.17972400,0.02911154,0.07798747,0.
 00592066,0.00074246,0.00595864,0.00083822,-0.00145317,-0.00055682,-0.0
 0048590,0.00200447,0.00240811,-0.00064926,-0.00016426,0.00013582,-0.10
 862406,-0.03173555,0.05301385,0.56025210,0.02820776,-0.15240697,-0.078
 45265,0.02591916,-0.00033952,-0.02432751,-0.00110638,-0.00632103,-0.00
 437920,0.00006499,-0.00042740,-0.00149987,0.00028435,0.00113826,0.0014
 9600,-0.03950988,0.02773312,0.02250187,0.16566603,0.58092151,0.0841936
 4,-0.07792636,-0.16213263,0.02367957,-0.01021286,-0.00560000,-0.000504
 05,-0.00466106,-0.00160573,-0.00027654,0.00169474,0.00028357,0.0011075
 0,-0.00271509,-0.00130909,0.04833787,0.01779469,0.01207010,-0.16027518
 ,0.30284257,0.39166248,-0.02839941,-0.01674734,0.01055619,-0.00153921,
 0.00155390,0.00054768,-0.00050859,-0.00179174,-0.00087172,-0.00031709,
 0.00081754,-0.00068137,0.00009732,0.00000773,0.00170945,0.00237912,0.0
 0282882,0.00136987,-0.18232011,-0.11752459,0.03691430,0.33066241,-0.01
 483380,0.00343710,0.02004868,0.00309814,-0.00068485,-0.00232960,0.0004
 5805,-0.00010300,-0.00028178,0.00044783,-0.00017018,0.00022126,0.00122
 986,0.00013696,-0.00174816,0.00942316,0.00695288,-0.00580948,-0.087768
 05,-0.12672587,0.00649110,0.09283231,0.20321456,0.01046715,0.01686685,
 -0.01160950,0.00173011,-0.00082456,-0.00243165,0.00044555,0.00083792,0
 .00076355,0.00190409,-0.00064624,-0.00008436,0.00019043,-0.00028816,-0
 .00064401,0.00095161,-0.00432039,0.00425011,0.02438948,0.01178160,-0.0
 4521699,0.02209813,-0.09399402,0.14548746,-0.01421465,0.00129479,0.004
 20819,0.00103664,-0.00071629,-0.00028006,0.00058590,0.00016278,-0.0002
 6705,-0.00004247,0.00010923,0.00084853,-0.00050716,0.00063676,-0.00019
 357,0.00762583,0.00305208,-0.00126401,-0.00539860,0.00638805,-0.012500
 77,-0.04976674,-0.00190720,-0.00081821,0.88761960,0.00478712,-0.001533
 05,-0.00478183,-0.00026215,-0.00009101,0.00020620,-0.00023488,0.000116
 96,-0.00008006,0.00049050,0.00045671,-0.00048990,0.00004668,0.00016883
 ,0.00055931,-0.00374164,-0.00188290,0.00234410,-0.02065221,0.00107179,
 -0.01353763,0.05863996,-0.09364435,0.07198846,0.32679981,0.55523586,-0
 .00435829,0.00023747,0.01320721,0.00102823,-0.00004173,-0.00011260,0.0
 0011696,0.00017872,-0.00047210,0.00014070,-0.00074287,-0.00021104,-0.0
 0062447,0.00068687,-0.00025313,0.00630049,0.00347644,-0.00432131,0.020
 21106,-0.01018048,-0.00125388,-0.05462841,0.04901977,-0.10499354,-0.01
 146128,-0.15572276,0.35119101,0.00181921,-0.00052165,-0.00159237,-0.00
 028079,-0.00005664,0.00000369,0.00000167,-0.00000723,0.00010496,-0.000
 04060,0.00024631,0.00009497,0.00018633,-0.00011167,0.00002685,-0.00098
 517,-0.00023249,0.00042016,0.00053206,-0.00006878,0.00246162,-0.000389
 56,0.01805626,-0.02173112,-0.09021889,0.00379231,0.00062175,0.65299319
 ,-0.00121509,-0.00000261,0.00058757,0.00003575,-0.00014642,-0.00006302
 ,0.00002471,-0.00004164,-0.00001565,0.00004066,-0.00006607,0.00003612,
 0.00007240,0.00001076,-0.00005796,0.00053657,0.00024379,-0.00022935,0.
 00189733,-0.00150162,0.00007622,-0.00265466,0.00106870,0.00961895,-0.0
 0988483,-0.17322714,0.05937321,-0.00777978,0.55170719,0.00071119,0.000
 28288,-0.00019814,-0.00002590,0.00002872,-0.00016466,-0.00005260,-0.00
 001668,0.00003105,0.00001421,-0.00019036,-0.00010517,0.00002311,-0.000
 07306,-0.00006893,-0.00045643,-0.00043509,0.00008660,-0.00051006,0.000
 15670,-0.00137494,-0.00383876,0.01821085,-0.00278771,0.01207985,0.0636
 8315,-0.14867753,0.03113877,0.02856947,0.58010469,-0.00029556,0.000525
 84,0.00024857,0.00007351,0.00009609,0.00002113,-0.00001980,-0.00001629
 ,-0.00002584,-0.00001674,-0.00005735,-0.00007152,-0.00004895,-0.000027
 84,-0.00001374,0.00005781,-0.00032269,-0.00001677,0.00006295,0.0000655
 3,0.00037664,0.00014424,0.00081694,-0.00036783,-0.00552052,-0.00650935
 ,-0.00407744,-0.07368921,-0.06285893,-0.04963595,0.07630032,0.00079231
 ,-0.00010227,-0.00056715,-0.00009433,-0.00000298,0.00003327,0.00001464
 ,0.00001465,0.00004494,-0.00001629,0.00004366,0.00005231,0.00001151,-0
 .00002131,0.00002068,-0.00023637,-0.00001539,0.00008175,0.00000347,0.0
 0153114,-0.00050590,-0.00101699,0.00003740,0.00262521,-0.00809610,-0.0
 1932540,-0.02281337,-0.06084640,-0.23202058,-0.12344856,0.07044544,0.2
 4724925,0.00033755,-0.00050163,-0.00030978,-0.00003873,-0.00000889,-0.
 00003428,0.00001870,-0.00000451,0.00002244,0.00001030,0.00007653,0.000
 03668,0.00001521,0.00000283,0.00004386,-0.00007038,0.00015474,0.000030
 03,-0.00127821,0.00148073,-0.00049201,0.00003041,-0.00109111,-0.001247
 59,0.00541581,0.01657058,0.01913722,-0.04821707,-0.12158492,-0.1427327
 2,0.05112135,0.13627272,0.15271417,0.00070433,-0.00017160,0.00005232,0
 .00004405,0.00001978,0.00003120,-0.00003013,0.00002457,-0.00001326,-0.
 00002509,-0.00010533,-0.00007598,-0.00004290,0.00003188,-0.00001628,-0
 .00018157,-0.00002608,-0.00002593,-0.00037834,0.00109671,-0.00094202,-
 0.00019159,-0.00222598,0.00135598,0.00542191,-0.00365122,0.00540295,-0
 .25681195,0.05724640,-0.12727771,-0.00545145,0.00167962,-0.00281459,0.
 27341965,-0.00029260,0.00008983,0.00004197,0.00001694,-0.00004499,0.00
 000035,0.00003183,0.00000879,0.00000341,0.00001586,0.00002390,0.000066
 36,-0.00002692,0.00002262,0.00002024,0.00029762,0.00012348,-0.00006039
 ,-0.00095833,0.00139173,-0.00157318,-0.00092168,-0.00395639,0.00434721
 ,0.02777349,-0.01037261,0.01931782,0.05236128,-0.07124735,0.03194898,-
 0.02451844,0.00979673,-0.01389026,-0.05909573,0.07298509,0.00041000,-0
 .00001074,-0.00068421,-0.00011158,0.00001394,0.00001642,0.00000734,-0.
 00001528,0.00004218,0.00001853,0.00011883,0.00005811,0.00006771,-0.000
 06197,0.00002805,-0.00037975,-0.00012802,0.00017885,0.00041380,-0.0005
 5430,0.00126921,0.00019143,0.00378097,-0.00175081,-0.02104868,0.006913
 05,-0.01475134,-0.12316271,0.03393129,-0.13528065,-0.01488558,0.005649
 72,-0.00946059,0.13716929,-0.04016490,0.14154259,-0.00011868,0.0006426
 3,-0.00062132,-0.00004308,0.00004917,0.00000601,-0.00002900,0.00000889
 ,-0.00001485,0.00001121,0.00016631,-0.00008100,-0.00001089,-0.00003823
 ,0.00000182,0.00001594,-0.00029268,0.00019210,-0.00034670,0.00038160,-
 0.00126622,-0.00013686,-0.00009476,-0.00003301,-0.00763779,-0.00020227
 ,0.00265615,-0.21553884,0.04940124,0.13576041,0.00877105,-0.00144608,-
 0.00750871,-0.01862435,0.00564916,0.01945155,0.23248685,0.00025239,0.0
 0070691,0.00077990,0.00021436,0.00003455,0.00020688,-0.00009484,0.0000
 2429,-0.00009062,0.00014444,-0.00038655,-0.00012814,-0.00008033,0.0000
 2707,-0.00007120,-0.00007805,-0.00040145,-0.00009871,0.00122346,-0.000
 64557,0.00096267,0.00091504,-0.00116524,-0.00147579,-0.02534464,0.0136
 7603,0.01734362,0.04732281,-0.06469439,-0.03253846,0.02335783,-0.00475
 587,-0.01896877,0.00499832,-0.00228662,-0.00546696,-0.05206142,0.06812
 240,-0.00125559,0.00049275,-0.00067742,-0.00010134,-0.00006601,-0.0000
 4386,0.00009250,-0.00006361,0.00005877,0.00007254,0.00017913,0.0002825
 0,0.00010867,-0.00007547,0.00002119,0.00016473,-0.00008465,0.00015218,
 -0.00029892,-0.00118301,0.00096117,0.00000541,0.00263997,-0.00001606,0
 .01574746,-0.01114805,-0.01113246,0.13434209,-0.03451091,-0.16864639,0
 .01490167,-0.00397559,-0.01250911,-0.01409592,0.00394519,0.01568512,-0
 .14975821,0.03972844,0.17642096,0.01106585,-0.00199344,-0.01022470,-0.
 00056005,0.00035128,0.00034418,-0.00027153,0.00002762,0.00028797,-0.00
 002041,-0.00000666,-0.00020748,0.00017709,-0.00027868,0.00011387,-0.00
 706690,-0.00282873,0.00319171,-0.01841507,0.00008676,-0.00068373,-0.05
 952712,-0.00098084,-0.02824523,-0.73057023,-0.35289423,0.03889346,-0.0
 1724517,-0.02463579,0.00210756,-0.00006178,-0.00191530,0.00326391,0.00
 199302,-0.00071509,0.00179987,0.00117028,-0.00071058,0.00016163,0.8220
 9688,0.00094072,-0.00011296,-0.00065215,-0.00001383,0.00012165,0.00009
 203,-0.00000056,-0.00002397,0.00004531,-0.00019664,-0.00026438,0.00005
 173,-0.00006268,-0.00005914,-0.00015416,-0.00022501,0.00004544,-0.0001
 4645,-0.00010600,0.00294408,0.00490336,-0.01245160,0.02171502,-0.01448
 008,-0.31910008,-0.27340332,0.03914220,-0.05236698,-0.01021940,0.01377
 885,-0.00125656,-0.00216497,0.00136651,0.00017790,0.00368218,-0.003933
 48,-0.00214742,-0.00834980,0.00424394,0.38491216,0.26638756,0.00251528
 ,-0.00126473,-0.00583307,-0.00033137,0.00003540,0.00013886,-0.00005766
 ,0.00002696,0.00013507,-0.00006154,0.00019040,0.00004507,0.00013156,-0
 .00012636,0.00007223,-0.00301989,-0.00125314,0.00202619,-0.01052989,0.
 00497122,0.00258896,-0.01783738,-0.00999440,0.01323210,0.01031382,0.02
 582986,-0.09557589,0.02542070,0.02434607,0.01966414,0.00297111,0.00597
 193,-0.00521923,0.00106701,-0.00426737,0.00297543,0.00123264,0.0001536
 9,-0.00037134,-0.01137792,-0.04477731,0.06594519,0.01226819,0.03355206
 ,0.01985758,-0.00458298,-0.00148517,0.00402758,0.00018802,0.00142321,0
 .00111604,0.00002510,0.00004845,0.00012884,0.00006177,-0.00032466,-0.0
 0047749,-0.00041161,-0.00278231,-0.00505926,-0.07126397,-0.06995131,-0
 .02062262,-0.01018680,-0.01855192,-0.01233714,0.00158715,-0.00640843,-
 0.00022186,-0.00033228,-0.00022596,-0.00003767,-0.00030587,0.00072088,
 -0.00028555,0.00015439,0.00038261,0.00005878,0.00003086,-0.00005880,-0
 .00008672,-0.00276487,0.00189659,-0.00043646,0.07553291,0.00151763,-0.
 00721782,-0.00788208,0.00033278,0.00279092,-0.00164492,-0.00022715,-0.
 00012975,-0.00035988,-0.00005940,-0.00036756,-0.00028091,-0.00019385,0
 .00022121,0.00046697,-0.00170757,-0.00112712,0.00440923,-0.05781121,-0
 .32836363,-0.22363329,-0.00448667,-0.01011273,-0.00203697,-0.00116785,
 0.00275360,0.00072509,0.00021264,0.00013677,0.00004263,0.00025976,-0.0
 0026405,0.00012544,0.00000076,-0.00021638,-0.00007214,-0.00001614,0.00
 009423,-0.00012211,0.00158153,-0.00029799,0.00015777,0.06176475,0.3421
 0028,-0.00951002,-0.02292012,-0.01226540,0.00482831,-0.00046617,0.0016
 8699,0.00006514,-0.00115303,-0.00022784,-0.00029169,0.00069332,0.00029
 370,0.00018710,-0.00056320,-0.00037023,-0.00250277,0.00552755,0.000487
 32,-0.01106914,-0.22465367,-0.18985022,0.00443477,0.01483596,0.0070490
 0,-0.00078004,-0.00233448,-0.00178062,0.00006772,-0.00007708,0.0001503
 5,-0.00054580,0.00055806,0.00002091,0.00018292,0.00026457,0.00013163,-
 0.00001735,-0.00033655,-0.00018525,0.00057489,0.00051969,0.00017629,0.
 01437596,0.23010515,0.19468337\\-0.00000945,0.00001239,0.00001527,-0.0
 0000698,0.00000654,-0.00000026,0.00000040,0.00000175,0.00000165,-0.000
 00066,-0.00000291,0.00000004,-0.00000147,0.00000080,0.00000292,0.00001
 072,-0.00000222,-0.00000238,-0.00000785,-0.00001852,-0.00000711,0.0000
 0990,0.00001329,-0.00000946,0.00001985,-0.00000194,0.00000795,-0.00000
 761,0.00000403,0.00000690,0.00000242,-0.00000040,-0.00000333,0.0000011
 4,0.,0.00000004,0.00000117,-0.00000192,-0.00000277,-0.00001574,-0.0000
 0642,-0.00000412,0.00000416,-0.00000449,-0.00000534\\\@


 DON'T WORRY CHARLIE BROWN...WE LEARN MORE FROM LOSING 
 THAN WE DO FROM WINNING.
 THEN THAT MAKES ME THE SMARTEST PERSON IN THE WORLD...
 CHARLES SCHULZ 'PEANUTS'
 Job cpu time:  0 days  1 hours 32 minutes 45.1 seconds.
 File lengths (MBytes):  RWF=    128 Int=      0 D2E=      0 Chk=      8 Scr=      1
 Normal termination of Gaussian 09 at Fri May 29 11:00:03 2015.
