 Entering Gaussian System, Link 0=g09
 Input=Gas-HF-6-311+G2dfp-Freq-Opt-CF3NH2.inp
 Output=Gas-HF-6-311+G2dfp-Freq-Opt-CF3NH2.log
 Initial command:
 /usr/local/g09/l1.exe /local/gaussian-tmp/3702331/Gau-20847.inp -scrdir=/local/gaussian-tmp/3702331/
 Entering Link 1 = /usr/local/g09/l1.exe PID=     20848.
  
 Copyright (c) 1988,1990,1992,1993,1995,1998,2003,2009, Gaussian, Inc.
                  All Rights Reserved.
  
 This is part of the Gaussian(R) 09 program.  It is based on
 the Gaussian(R) 03 system (copyright 2003, Gaussian, Inc.),
 the Gaussian(R) 98 system (copyright 1998, Gaussian, Inc.),
 the Gaussian(R) 94 system (copyright 1995, Gaussian, Inc.),
 the Gaussian 92(TM) system (copyright 1992, Gaussian, Inc.),
 the Gaussian 90(TM) system (copyright 1990, Gaussian, Inc.),
 the Gaussian 88(TM) system (copyright 1988, Gaussian, Inc.),
 the Gaussian 86(TM) system (copyright 1986, Carnegie Mellon
 University), and the Gaussian 82(TM) system (copyright 1983,
 Carnegie Mellon University). Gaussian is a federally registered
 trademark of Gaussian, Inc.
  
 This software contains proprietary and confidential information,
 including trade secrets, belonging to Gaussian, Inc.
  
 This software is provided under written license and may be
 used, copied, transmitted, or stored only in accord with that
 written license.
  
 The following legend is applicable only to US Government
 contracts under FAR:
  
                    RESTRICTED RIGHTS LEGEND
  
 Use, reproduction and disclosure by the US Government is
 subject to restrictions as set forth in subparagraphs (a)
 and (c) of the Commercial Computer Software - Restricted
 Rights clause in FAR 52.227-19.
  
 Gaussian, Inc.
 340 Quinnipiac St., Bldg. 40, Wallingford CT 06492
  
  
 ---------------------------------------------------------------
 Warning -- This program may not be used in any manner that
 competes with the business of Gaussian, Inc. or will provide
 assistance to any competitor of Gaussian, Inc.  The licensee
 of this program is prohibited from giving any competitor of
 Gaussian, Inc. access to this program.  By using this program,
 the user acknowledges that Gaussian, Inc. is engaged in the
 business of creating and licensing software in the field of
 computational chemistry and represents and warrants to the
 licensee that it is not a competitor of Gaussian, Inc. and that
 it will not use this program in any manner prohibited above.
 ---------------------------------------------------------------
  

 Cite this work as:
 Gaussian 09, Revision A.02,
 M. J. Frisch, G. W. Trucks, H. B. Schlegel, G. E. Scuseria, 
 M. A. Robb, J. R. Cheeseman, G. Scalmani, V. Barone, B. Mennucci, 
 G. A. Petersson, H. Nakatsuji, M. Caricato, X. Li, H. P. Hratchian, 
 A. F. Izmaylov, J. Bloino, G. Zheng, J. L. Sonnenberg, M. Hada, 
 M. Ehara, K. Toyota, R. Fukuda, J. Hasegawa, M. Ishida, T. Nakajima, 
 Y. Honda, O. Kitao, H. Nakai, T. Vreven, J. A. Montgomery, Jr., 
 J. E. Peralta, F. Ogliaro, M. Bearpark, J. J. Heyd, E. Brothers, 
 K. N. Kudin, V. N. Staroverov, R. Kobayashi, J. Normand, 
 K. Raghavachari, A. Rendell, J. C. Burant, S. S. Iyengar, J. Tomasi, 
 M. Cossi, N. Rega, J. M. Millam, M. Klene, J. E. Knox, J. B. Cross, 
 V. Bakken, C. Adamo, J. Jaramillo, R. Gomperts, R. E. Stratmann, 
 O. Yazyev, A. J. Austin, R. Cammi, C. Pomelli, J. W. Ochterski, 
 R. L. Martin, K. Morokuma, V. G. Zakrzewski, G. A. Voth, 
 P. Salvador, J. J. Dannenberg, S. Dapprich, A. D. Daniels, 
 O. Farkas, J. B. Foresman, J. V. Ortiz, J. Cioslowski, 
 and D. J. Fox, Gaussian, Inc., Wallingford CT, 2009.
 
 ******************************************
 Gaussian 09:  EM64L-G09RevA.02 11-Jun-2009
                29-May-2015 
 ******************************************
 %chk=fsadshlala
 %mem=10GB
 %nproc=8
 Will use up to    8 processors via shared memory.
 ----------------------------
 # HF/6-311+G(2df,p) Opt Freq
 ----------------------------
 1/18=20,19=15,38=1/1,3;
 2/9=110,12=2,17=6,18=5,40=1/2;
 3/5=4,6=6,7=114,11=9,16=1,25=1,30=1,71=1/1,2,3;
 4//1;
 5/5=2,38=5/2;
 6/7=2,8=2,9=2,10=2,28=1/1;
 7//1,2,3,16;
 1/18=20,19=15/3(2);
 2/9=110/2;
 99//99;
 2/9=110/2;
 3/5=4,6=6,7=114,11=9,16=1,25=1,30=1,71=1/1,2,3;
 4/5=5,16=3/1;
 5/5=2,38=5/2;
 7//1,2,3,16;
 1/18=20,19=15/3(-5);
 2/9=110/2;
 6/7=2,8=2,9=2,10=2,19=2,28=1/1;
 99/9=1/99;
 -----
 title
 -----
 Symbolic Z-matrix:
 Charge =  0 Multiplicity = 1
 6                     0.36026   0.0014   -0.00004 
 9                     0.83766  -0.61479  -1.05272 
 9                     0.82362   1.22505  -0.00067 
 9                     0.83753  -0.61344   1.05347 
 7                    -1.44037   0.07877  -0.00009 
 1                    -1.6049   -1.24021   0.001 
 1                    -2.08602   0.84241  -0.00072 
 

 GradGradGradGradGradGradGradGradGradGradGradGradGradGradGradGradGradGrad
 Berny optimization.
 Initialization pass.
                           ----------------------------
                           !    Initial Parameters    !
                           ! (Angstroms and Degrees)  !
 --------------------------                            --------------------------
 ! Name  Definition              Value          Derivative Info.                !
 --------------------------------------------------------------------------------
 ! R1    R(1,2)                  1.3099         estimate D2E/DX2                !
 ! R2    R(1,3)                  1.3084         estimate D2E/DX2                !
 ! R3    R(1,4)                  1.3098         estimate D2E/DX2                !
 ! R4    R(1,5)                  1.8023         estimate D2E/DX2                !
 ! R5    R(5,6)                  1.3292         estimate D2E/DX2                !
 ! R6    R(5,7)                  1.0            estimate D2E/DX2                !
 ! A1    A(2,1,3)              108.0884         estimate D2E/DX2                !
 ! A2    A(2,1,4)              107.0241         estimate D2E/DX2                !
 ! A3    A(2,1,5)              112.5999         estimate D2E/DX2                !
 ! A4    A(3,1,4)              108.0793         estimate D2E/DX2                !
 ! A5    A(3,1,5)              108.2793         estimate D2E/DX2                !
 ! A6    A(4,1,5)              112.595          estimate D2E/DX2                !
 ! A7    A(1,5,6)               94.6497         estimate D2E/DX2                !
 ! A8    A(1,5,7)              132.6751         estimate D2E/DX2                !
 ! A9    A(6,5,7)              132.6751         estimate D2E/DX2                !
 ! D1    D(2,1,5,6)             60.5666         estimate D2E/DX2                !
 ! D2    D(2,1,5,7)           -119.4334         estimate D2E/DX2                !
 ! D3    D(3,1,5,6)           -179.9825         estimate D2E/DX2                !
 ! D4    D(3,1,5,7)              0.0175         estimate D2E/DX2                !
 ! D5    D(4,1,5,6)            -60.5459         estimate D2E/DX2                !
 ! D6    D(4,1,5,7)            119.4541         estimate D2E/DX2                !
 --------------------------------------------------------------------------------
 Trust Radius=3.00D-01 FncErr=1.00D-07 GrdErr=1.00D-07
 Number of steps in this run=  31 maximum allowed number of steps= 100.
 GradGradGradGradGradGradGradGradGradGradGradGradGradGradGradGradGradGrad

                          Input orientation:                          
 ---------------------------------------------------------------------
 Center     Atomic      Atomic             Coordinates (Angstroms)
 Number     Number       Type             X           Y           Z
 ---------------------------------------------------------------------
      1          6           0        0.360262    0.001398   -0.000035
      2          9           0        0.837655   -0.614789   -1.052724
      3          9           0        0.823617    1.225052   -0.000666
      4          9           0        0.837531   -0.613436    1.053470
      5          7           0       -1.440369    0.078774   -0.000094
      6          1           0       -1.604898   -1.240207    0.000995
      7          1           0       -2.086021    0.842406   -0.000722
 ---------------------------------------------------------------------
                    Distance matrix (angstroms):
                    1          2          3          4          5
     1  C    0.000000
     2  F    1.309864   0.000000
     3  F    1.308445   2.119443   0.000000
     4  F    1.309839   2.106194   2.119300   0.000000
     5  N    1.802293   2.603546   2.537634   2.603455   0.000000
     6  H    2.324530   2.732679   3.460519   2.732399   1.329203
     7  H    2.586811   3.431910   2.934691   3.431902   1.000000
                    6          7
     6  H    0.000000
     7  H    2.137465   0.000000
 Stoichiometry    CH2F3N
 Framework group  C1[X(CH2F3N)]
 Deg. of freedom    15
 Full point group                 C1      NOp   1
 Largest Abelian subgroup         C1      NOp   1
 Largest concise Abelian subgroup C1      NOp   1
                         Standard orientation:                         
 ---------------------------------------------------------------------
 Center     Atomic      Atomic             Coordinates (Angstroms)
 Number     Number       Type             X           Y           Z
 ---------------------------------------------------------------------
      1          6           0        0.101243    0.003221   -0.000038
      2          9           0        0.608464   -0.588655   -1.052727
      3          9           0        0.503644    1.248251   -0.000669
      4          9           0        0.608274   -0.587310    1.053467
      5          7           0       -1.701012   -0.008361   -0.000097
      6          1           0       -1.800247   -1.333855    0.000992
      7          1           0       -2.383564    0.722476   -0.000725
 ---------------------------------------------------------------------
 Rotational constants (GHZ):      5.7980254      4.5828071      4.4659307
 Standard basis: 6-311+G(2df,p) (5D, 7F)
 There are   182 symmetry adapted basis functions of A   symmetry.
 Integral buffers will be    131072 words long.
 Raffenetti 1 integral format.
 Two-electron integral symmetry is turned on.
   182 basis functions,   276 primitive gaussians,   207 cartesian basis functions
    21 alpha electrons       21 beta electrons
       nuclear repulsion energy       195.9431922351 Hartrees.
 NAtoms=    7 NActive=    7 NUniq=    7 SFac= 7.50D-01 NAtFMM=   80 NAOKFM=F Big=F
 One-electron integrals computed using PRISM.
 NBasis=   182 RedAO= T  NBF=   182
 NBsUse=   182 1.00D-06 NBFU=   182
 Harris functional with IExCor=  205 diagonalized for initial guess.
 ExpMin= 4.38D-02 ExpMax= 1.14D+04 ExpMxC= 1.72D+03 IAcc=2 IRadAn=         0 AccDes= 0.00D+00
 HarFok:  IExCor=  205 AccDes= 0.00D+00 IRadAn=         0 IDoV= 1
 ScaDFX=  1.000000  1.000000  1.000000  1.000000
 FoFCou: FMM=F IPFlag=           0 FMFlag=      100000 FMFlg1=           0
         NFxFlg=           0 DoJE=T BraDBF=F KetDBF=T FulRan=T
         Omega=  0.000000  0.000000  1.000000  0.000000  0.000000 ICntrl=     500 IOpCl=  0
         NMat0=    1 NMatS0=    1 NMatT0=    0 NMatD0=    1 NMtDS0=    0 NMtDT0=    0
         I1Cent=           4 NGrid=           0.
 Petite list used in FoFCou.
 Initial guess orbital symmetries:
       Occupied  (A) (A) (A) (A) (A) (A) (A) (A) (A) (A) (A) (A)
                 (A) (A) (A) (A) (A) (A) (A) (A) (A)
       Virtual   (A) (A) (A) (A) (A) (A) (A) (A) (A) (A) (A) (A)
                 (A) (A) (A) (A) (A) (A) (A) (A) (A) (A) (A) (A)
                 (A) (A) (A) (A) (A) (A) (A) (A) (A) (A) (A) (A)
                 (A) (A) (A) (A) (A) (A) (A) (A) (A) (A) (A) (A)
                 (A) (A) (A) (A) (A) (A) (A) (A) (A) (A) (A) (A)
                 (A) (A) (A) (A) (A) (A) (A) (A) (A) (A) (A) (A)
                 (A) (A) (A) (A) (A) (A) (A) (A) (A) (A) (A) (A)
                 (A) (A) (A) (A) (A) (A) (A) (A) (A) (A) (A) (A)
                 (A) (A) (A) (A) (A) (A) (A) (A) (A) (A) (A) (A)
                 (A) (A) (A) (A) (A) (A) (A) (A) (A) (A) (A) (A)
                 (A) (A) (A) (A) (A) (A) (A) (A) (A) (A) (A) (A)
                 (A) (A) (A) (A) (A) (A) (A) (A) (A) (A) (A) (A)
                 (A) (A) (A) (A) (A) (A) (A) (A) (A) (A) (A) (A)
                 (A) (A) (A) (A) (A)
 The electronic state of the initial guess is 1-A.
 Requested convergence on RMS density matrix=1.00D-08 within 128 cycles.
 Requested convergence on MAX density matrix=1.00D-06.
 Requested convergence on             energy=1.00D-06.
 No special actions if energy rises.
 Keep R1 ints in memory in canonical form, NReq=236387357.
 SCF Done:  E(RHF) =  -391.802010730     A.U. after   12 cycles
             Convg  =    0.8380D-08             -V/T =  2.0026

 **********************************************************************

            Population analysis using the SCF density.

 **********************************************************************

 Orbital symmetries:
       Occupied  (A) (A) (A) (A) (A) (A) (A) (A) (A) (A) (A) (A)
                 (A) (A) (A) (A) (A) (A) (A) (A) (A)
       Virtual   (A) (A) (A) (A) (A) (A) (A) (A) (A) (A) (A) (A)
                 (A) (A) (A) (A) (A) (A) (A) (A) (A) (A) (A) (A)
                 (A) (A) (A) (A) (A) (A) (A) (A) (A) (A) (A) (A)
                 (A) (A) (A) (A) (A) (A) (A) (A) (A) (A) (A) (A)
                 (A) (A) (A) (A) (A) (A) (A) (A) (A) (A) (A) (A)
                 (A) (A) (A) (A) (A) (A) (A) (A) (A) (A) (A) (A)
                 (A) (A) (A) (A) (A) (A) (A) (A) (A) (A) (A) (A)
                 (A) (A) (A) (A) (A) (A) (A) (A) (A) (A) (A) (A)
                 (A) (A) (A) (A) (A) (A) (A) (A) (A) (A) (A) (A)
                 (A) (A) (A) (A) (A) (A) (A) (A) (A) (A) (A) (A)
                 (A) (A) (A) (A) (A) (A) (A) (A) (A) (A) (A) (A)
                 (A) (A) (A) (A) (A) (A) (A) (A) (A) (A) (A) (A)
                 (A) (A) (A) (A) (A) (A) (A) (A) (A) (A) (A) (A)
                 (A) (A) (A) (A) (A)
 The electronic state is 1-A.
 Alpha  occ. eigenvalues --  -26.36456 -26.36453 -26.35621 -15.60764 -11.56564
 Alpha  occ. eigenvalues --   -1.76983  -1.66442  -1.66223  -1.09931  -0.97547
 Alpha  occ. eigenvalues --   -0.85493  -0.85378  -0.82161  -0.73199  -0.72899
 Alpha  occ. eigenvalues --   -0.68632  -0.68553  -0.66770  -0.63396  -0.49916
 Alpha  occ. eigenvalues --   -0.41794
 Alpha virt. eigenvalues --    0.06289   0.10200   0.10480   0.11470   0.13710
 Alpha virt. eigenvalues --    0.16715   0.18347   0.21854   0.22508   0.29935
 Alpha virt. eigenvalues --    0.30694   0.32571   0.34482   0.36762   0.37644
 Alpha virt. eigenvalues --    0.39430   0.40066   0.40070   0.41855   0.42503
 Alpha virt. eigenvalues --    0.45202   0.45425   0.46087   0.51592   0.53903
 Alpha virt. eigenvalues --    0.54717   0.55299   0.72385   0.78119   0.81690
 Alpha virt. eigenvalues --    0.85054   0.94055   0.99778   0.99980   1.02693
 Alpha virt. eigenvalues --    1.07317   1.15507   1.18373   1.24025   1.30905
 Alpha virt. eigenvalues --    1.36021   1.39234   1.44599   1.46817   1.48136
 Alpha virt. eigenvalues --    1.51376   1.56800   1.57206   1.57869   1.62427
 Alpha virt. eigenvalues --    1.64073   1.68843   1.72318   1.72646   1.81823
 Alpha virt. eigenvalues --    1.87857   1.93977   2.08771   2.10692   2.18433
 Alpha virt. eigenvalues --    2.18543   2.20649   2.25296   2.25505   2.25682
 Alpha virt. eigenvalues --    2.33827   2.38799   2.40307   2.47965   2.48100
 Alpha virt. eigenvalues --    2.56336   2.57020   2.76515   2.87365   2.87758
 Alpha virt. eigenvalues --    2.90179   2.94913   3.00869   3.00891   3.14487
 Alpha virt. eigenvalues --    3.19036   3.51415   3.59707   3.64076   3.72817
 Alpha virt. eigenvalues --    3.76526   3.80855   3.82847   3.86400   3.94874
 Alpha virt. eigenvalues --    4.03221   4.03953   4.09193   4.09885   4.10563
 Alpha virt. eigenvalues --    4.22148   4.28878   4.33225   4.35821   4.49130
 Alpha virt. eigenvalues --    4.51517   4.63774   4.65549   4.88154   5.06805
 Alpha virt. eigenvalues --    5.28772   5.48009   5.51974   5.65160   5.76456
 Alpha virt. eigenvalues --    6.01737   6.87953   6.90127   6.92069   6.96613
 Alpha virt. eigenvalues --    6.97506   6.98698   7.08715   7.09056   7.09083
 Alpha virt. eigenvalues --    7.09437   7.09656   7.10568   7.11880   7.12397
 Alpha virt. eigenvalues --    7.12966   7.21640   7.23052   7.23436   7.30533
 Alpha virt. eigenvalues --    7.31900   7.33911   7.56069   7.56680   7.58852
 Alpha virt. eigenvalues --    7.74886   7.75950   7.82638   7.98818   8.41746
 Alpha virt. eigenvalues --    8.43622   9.66344   9.66676   9.69206   9.77128
 Alpha virt. eigenvalues --    9.77567   9.80799  10.03089  10.09522  10.10061
 Alpha virt. eigenvalues --   10.20751  10.34380  10.42134  10.46987  10.70363
 Alpha virt. eigenvalues --   10.72702  25.65259  36.93903  68.77817  68.78869
 Alpha virt. eigenvalues --   68.82532
          Condensed to atoms (all electrons):
              1          2          3          4          5          6
     1  C    4.233869   0.203597   0.186975   0.203589   0.361807  -0.048679
     2  F    0.203597   9.023246   0.021603   0.020479  -0.026085   0.004858
     3  F    0.186975   0.021603   9.062933   0.021600  -0.036891   0.003578
     4  F    0.203589   0.020479   0.021600   9.023260  -0.026085   0.004859
     5  N    0.361807  -0.026085  -0.036891  -0.026085   6.782875   0.324160
     6  H   -0.048679   0.004858   0.003578   0.004859   0.324160   0.438967
     7  H   -0.015910   0.001930   0.000087   0.001931   0.359620  -0.011405
              7
     1  C   -0.015910
     2  F    0.001930
     3  F    0.000087
     4  F    0.001931
     5  N    0.359620
     6  H   -0.011405
     7  H    0.323619
 Mulliken atomic charges:
              1
     1  C    0.874753
     2  F   -0.249629
     3  F   -0.259884
     4  F   -0.249632
     5  N   -0.739399
     6  H    0.283662
     7  H    0.340128
 Sum of Mulliken atomic charges =   0.00000
 Mulliken charges with hydrogens summed into heavy atoms:
              1
     1  C    0.874753
     2  F   -0.249629
     3  F   -0.259884
     4  F   -0.249632
     5  N   -0.115608
 Sum of Mulliken charges with hydrogens summed into heavy atoms =   0.00000
 Electronic spatial extent (au):  <R**2>=            347.3123
 Charge=              0.0000 electrons
 Dipole moment (field-independent basis, Debye):
    X=             -1.3529    Y=             -0.4919    Z=              0.0002  Tot=              1.4396
 Quadrupole moment (field-independent basis, Debye-Ang):
   XX=            -24.3090   YY=            -24.9936   ZZ=            -30.2595
   XY=             -0.1890   XZ=              0.0004   YZ=             -0.0045
 Traceless Quadrupole moment (field-independent basis, Debye-Ang):
   XX=              2.2117   YY=              1.5271   ZZ=             -3.7388
   XY=             -0.1890   XZ=              0.0004   YZ=             -0.0045
 Octapole moment (field-independent basis, Debye-Ang**2):
  XXX=              1.7499  YYY=             -3.6556  ZZZ=             -0.0015  XYY=             -3.5461
  XXY=              3.2471  XXZ=             -0.0027  XZZ=              6.8173  YZZ=              1.5812
  YYZ=              0.0048  XYZ=              0.0085
 Hexadecapole moment (field-independent basis, Debye-Ang**3):
 XXXX=           -153.5709 YYYY=            -87.5114 ZZZZ=            -88.6850 XXXY=            -13.0203
 XXXZ=              0.0110 YYYX=              2.8663 YYYZ=             -0.0061 ZZZX=             -0.0008
 ZZZY=              0.0000 XXYY=            -33.7850 XXZZ=            -52.5866 YYZZ=            -30.7303
 XXYZ=             -0.0170 YYXZ=             -0.0036 ZZXY=             -0.7780
 N-N= 1.959431922351D+02 E-N=-1.324253094025D+03  KE= 3.907861695906D+02
 Calling FoFJK, ICntrl=      2127 FMM=F ISym2X=0 I1Cent= 0 IOpClX= 0 NMat=1 NMatS=1 NMatT=0.
 ***** Axes restored to original set *****
 -------------------------------------------------------------------
 Center     Atomic                   Forces (Hartrees/Bohr)
 Number     Number              X              Y              Z
 -------------------------------------------------------------------
      1        6          -0.073078754    0.038868904   -0.000015304
      2        9          -0.024116487    0.004833363    0.013081845
      3        9          -0.009077348   -0.010587697   -0.000020018
      4        9          -0.024110292    0.004776041   -0.013072161
      5        7           0.131409918   -0.170163612    0.000137780
      6        1          -0.009551968    0.135657955   -0.000112422
      7        1           0.008524930   -0.003384956    0.000000279
 -------------------------------------------------------------------
 Cartesian Forces:  Max     0.170163612 RMS     0.059120377

 GradGradGradGradGradGradGradGradGradGradGradGradGradGradGradGradGradGrad
 Berny optimization.
 Internal  Forces:  Max     0.133432404 RMS     0.044629338
 Search for a local minimum.
 Step number   1 out of a maximum of   31
 All quantities printed in internal units (Hartrees-Bohrs-Radians)
 Mixed Optimization -- RFO/linear search
 Second derivative matrix not updated -- first step.
     Eigenvalues ---    0.00230   0.00230   0.10300   0.11069   0.13871
     Eigenvalues ---    0.16000   0.16000   0.17210   0.25000   0.25000
     Eigenvalues ---    0.25000   0.47688   0.64526   0.64533   0.64901
     Eigenvalues --- 1000.000001000.000001000.000001000.000001000.00000
     Eigenvalues --- 1000.00000
 RFO step:  Lambda=-1.38501747D-01 EMin= 2.30000000D-03
 Linear search not attempted -- first point.
 Maximum step size (   0.300) exceeded in Quadratic search.
    -- Step size scaled by   0.439
 Iteration  1 RMS(Cart)=  0.07217506 RMS(Int)=  0.00270910
 Iteration  2 RMS(Cart)=  0.00433987 RMS(Int)=  0.00020194
 Iteration  3 RMS(Cart)=  0.00000399 RMS(Int)=  0.00020189
 Iteration  4 RMS(Cart)=  0.00000000 RMS(Int)=  0.00020189
 Variable       Old X    -DE/DX   Delta X   Delta X   Delta X     New X
                                 (Linear)    (Quad)   (Total)
    R1        2.47528  -0.02158   0.00000  -0.01210  -0.01210   2.46319
    R2        2.47260  -0.01312   0.00000  -0.00732  -0.00732   2.46528
    R3        2.47524  -0.02154   0.00000  -0.01207  -0.01207   2.46316
    R4        3.40584  -0.13189   0.00000  -0.20903  -0.20903   3.19681
    R5        2.51183  -0.13343   0.00000  -0.18874  -0.18874   2.32309
    R6        1.88973  -0.00809   0.00000  -0.00578  -0.00578   1.88395
    A1        1.88650   0.01445   0.00000   0.01859   0.01863   1.90513
    A2        1.86792   0.01970   0.00000   0.01810   0.01748   1.88540
    A3        1.96524  -0.02471   0.00000  -0.02919  -0.02949   1.93575
    A4        1.88634   0.01449   0.00000   0.01865   0.01869   1.90503
    A5        1.88983   0.00372   0.00000   0.00662   0.00666   1.89649
    A6        1.96515  -0.02471   0.00000  -0.02918  -0.02948   1.93567
    A7        1.65195   0.04671   0.00000   0.06876   0.06876   1.72071
    A8        2.31562  -0.02744   0.00000  -0.04039  -0.04039   2.27523
    A9        2.31562  -0.01927   0.00000  -0.02836  -0.02836   2.28725
    D1        1.05709  -0.00530   0.00000  -0.00965  -0.00938   1.04770
    D2       -2.08451  -0.00530   0.00000  -0.00964  -0.00938  -2.09388
    D3       -3.14129  -0.00002   0.00000  -0.00003  -0.00003  -3.14131
    D4        0.00031  -0.00001   0.00000  -0.00002  -0.00002   0.00028
    D5       -1.05672   0.00532   0.00000   0.00967   0.00941  -1.04732
    D6        2.08487   0.00532   0.00000   0.00967   0.00941   2.09428
         Item               Value     Threshold  Converged?
 Maximum Force            0.133432     0.000450     NO 
 RMS     Force            0.044629     0.000300     NO 
 Maximum Displacement     0.171417     0.001800     NO 
 RMS     Displacement     0.075008     0.001200     NO 
 Predicted change in Energy=-5.371254D-02
 GradGradGradGradGradGradGradGradGradGradGradGradGradGradGradGradGradGrad

                          Input orientation:                          
 ---------------------------------------------------------------------
 Center     Atomic      Atomic             Coordinates (Angstroms)
 Number     Number       Type             X           Y           Z
 ---------------------------------------------------------------------
      1          6           0        0.327380    0.004402   -0.000026
      2          9           0        0.781144   -0.613331   -1.054313
      3          9           0        0.767833    1.232372   -0.000692
      4          9           0        0.781029   -0.612010    1.055067
      5          7           0       -1.364004    0.036024   -0.000056
      6          1           0       -1.570293   -1.175870    0.000941
      7          1           0       -1.995311    0.807612   -0.000697
 ---------------------------------------------------------------------
                    Distance matrix (angstroms):
                    1          2          3          4          5
     1  C    0.000000
     2  F    1.303464   0.000000
     3  F    1.304572   2.125303   0.000000
     4  F    1.303450   2.109381   2.125216   0.000000
     5  N    1.691679   2.476848   2.444581   2.476772   0.000000
     6  H    2.234772   2.638043   3.356556   2.637771   1.229326
     7  H    2.457649   3.292094   2.795601   3.292116   0.996944
                    6          7
     6  H    0.000000
     7  H    2.028508   0.000000
 Stoichiometry    CH2F3N
 Framework group  C1[X(CH2F3N)]
 Deg. of freedom    15
 Full point group                 C1      NOp   1
 Largest Abelian subgroup         C1      NOp   1
 Largest concise Abelian subgroup C1      NOp   1
                         Standard orientation:                         
 ---------------------------------------------------------------------
 Center     Atomic      Atomic             Coordinates (Angstroms)
 Number     Number       Type             X           Y           Z
 ---------------------------------------------------------------------
      1          6           0        0.093458    0.006570   -0.000028
      2          9           0        0.557348   -0.603184   -1.054553
      3          9           0        0.513630    1.241627   -0.000193
      4          9           0        0.557181   -0.602710    1.054828
      5          7           0       -1.598217    0.010336   -0.000082
      6          1           0       -1.784522   -1.204791    0.000426
      7          1           0       -2.242144    0.771424   -0.000428
 ---------------------------------------------------------------------
 Rotational constants (GHZ):      5.7813216      4.9127337      4.7788208
 Standard basis: 6-311+G(2df,p) (5D, 7F)
 There are   182 symmetry adapted basis functions of A   symmetry.
 Integral buffers will be    131072 words long.
 Raffenetti 1 integral format.
 Two-electron integral symmetry is turned on.
   182 basis functions,   276 primitive gaussians,   207 cartesian basis functions
    21 alpha electrons       21 beta electrons
       nuclear repulsion energy       199.4323833355 Hartrees.
 NAtoms=    7 NActive=    7 NUniq=    7 SFac= 7.50D-01 NAtFMM=   80 NAOKFM=F Big=F
 One-electron integrals computed using PRISM.
 NBasis=   182 RedAO= T  NBF=   182
 NBsUse=   182 1.00D-06 NBFU=   182
 Initial guess read from the read-write file.
 B after Tr=     0.000000    0.000000    0.000000
         Rot=    1.000000    0.000000    0.000000    0.000000 Ang=   0.00 deg.
 Initial guess orbital symmetries:
       Occupied  (A) (A) (A) (A) (A) (A) (A) (A) (A) (A) (A) (A)
                 (A) (A) (A) (A) (A) (A) (A) (A) (A)
       Virtual   (A) (A) (A) (A) (A) (A) (A) (A) (A) (A) (A) (A)
                 (A) (A) (A) (A) (A) (A) (A) (A) (A) (A) (A) (A)
                 (A) (A) (A) (A) (A) (A) (A) (A) (A) (A) (A) (A)
                 (A) (A) (A) (A) (A) (A) (A) (A) (A) (A) (A) (A)
                 (A) (A) (A) (A) (A) (A) (A) (A) (A) (A) (A) (A)
                 (A) (A) (A) (A) (A) (A) (A) (A) (A) (A) (A) (A)
                 (A) (A) (A) (A) (A) (A) (A) (A) (A) (A) (A) (A)
                 (A) (A) (A) (A) (A) (A) (A) (A) (A) (A) (A) (A)
                 (A) (A) (A) (A) (A) (A) (A) (A) (A) (A) (A) (A)
                 (A) (A) (A) (A) (A) (A) (A) (A) (A) (A) (A) (A)
                 (A) (A) (A) (A) (A) (A) (A) (A) (A) (A) (A) (A)
                 (A) (A) (A) (A) (A) (A) (A) (A) (A) (A) (A) (A)
                 (A) (A) (A) (A) (A) (A) (A) (A) (A) (A) (A) (A)
                 (A) (A) (A) (A) (A)
 Harris functional with IExCor=  205 diagonalized for initial guess.
 ExpMin= 4.38D-02 ExpMax= 1.14D+04 ExpMxC= 1.72D+03 IAcc=2 IRadAn=         0 AccDes= 0.00D+00
 HarFok:  IExCor=  205 AccDes= 0.00D+00 IRadAn=         0 IDoV= 1
 ScaDFX=  1.000000  1.000000  1.000000  1.000000
 FoFCou: FMM=F IPFlag=           0 FMFlag=      100000 FMFlg1=           0
         NFxFlg=           0 DoJE=T BraDBF=F KetDBF=T FulRan=T
         Omega=  0.000000  0.000000  1.000000  0.000000  0.000000 ICntrl=     500 IOpCl=  0
         NMat0=    1 NMatS0=    1 NMatT0=    0 NMatD0=    1 NMtDS0=    0 NMtDT0=    0
         I1Cent=           4 NGrid=           0.
 Petite list used in FoFCou.
 Requested convergence on RMS density matrix=1.00D-08 within 128 cycles.
 Requested convergence on MAX density matrix=1.00D-06.
 Requested convergence on             energy=1.00D-06.
 No special actions if energy rises.
 Keep R1 ints in memory in canonical form, NReq=236387357.
 SCF Done:  E(RHF) =  -391.860138374     A.U. after   11 cycles
             Convg  =    0.2765D-08             -V/T =  2.0022
 Calling FoFJK, ICntrl=      2127 FMM=F ISym2X=0 I1Cent= 0 IOpClX= 0 NMat=1 NMatS=1 NMatT=0.
 ***** Axes restored to original set *****
 -------------------------------------------------------------------
 Center     Atomic                   Forces (Hartrees/Bohr)
 Number     Number              X              Y              Z
 -------------------------------------------------------------------
      1        6          -0.099305359    0.031695921   -0.000013966
      2        9          -0.010437734    0.002608864    0.008384958
      3        9          -0.001944845   -0.007600743   -0.000012197
      4        9          -0.010432396    0.002572590   -0.008378527
      5        7           0.119176850   -0.149852760    0.000121726
      6        1          -0.004445607    0.124795476   -0.000103398
      7        1           0.007389091   -0.004219349    0.000001404
 -------------------------------------------------------------------
 Cartesian Forces:  Max     0.149852760 RMS     0.055043068

 GradGradGradGradGradGradGradGradGradGradGradGradGradGradGradGradGradGrad
 Berny optimization.
 Using GEDIIS/GDIIS optimizer.
 Internal  Forces:  Max     0.122646255 RMS     0.039852530
 Search for a local minimum.
 Step number   2 out of a maximum of   31
 All quantities printed in internal units (Hartrees-Bohrs-Radians)
 Mixed Optimization -- RFO/linear search
 Update second derivatives using D2CorX and points    1    2
 DE= -5.81D-02 DEPred=-5.37D-02 R= 1.08D+00
 SS=  1.41D+00  RLast= 3.00D-01 DXNew= 5.0454D-01 8.9999D-01
 Trust test= 1.08D+00 RLast= 3.00D-01 DXMaxT set to 5.05D-01
 Use linear search instead of GDIIS.
 Linear search step of   0.600 exceeds DXMaxT=   0.505 but not scaled.
 Quartic linear search produced a step of  2.00000.
 Iteration  1 RMS(Cart)=  0.08747151 RMS(Int)=  0.06354750
 Iteration  2 RMS(Cart)=  0.07453153 RMS(Int)=  0.00487526
 Iteration  3 RMS(Cart)=  0.00591569 RMS(Int)=  0.00126652
 Iteration  4 RMS(Cart)=  0.00000057 RMS(Int)=  0.00126652
 Variable       Old X    -DE/DX   Delta X   Delta X   Delta X     New X
                                 (Linear)    (Quad)   (Total)
    R1        2.46319  -0.01165  -0.02419   0.00000  -0.02419   2.43900
    R2        2.46528  -0.00781  -0.01463   0.00000  -0.01463   2.45065
    R3        2.46316  -0.01163  -0.02415   0.00000  -0.02415   2.43902
    R4        3.19681  -0.12265  -0.41806   0.00000  -0.41806   2.77875
    R5        2.32309  -0.12228  -0.37748   0.00000  -0.37748   1.94561
    R6        1.88395  -0.00794  -0.01155   0.00000  -0.01155   1.87240
    A1        1.90513   0.00459   0.03727   0.00000   0.03736   1.94250
    A2        1.88540   0.00653   0.03496   0.00000   0.03100   1.91640
    A3        1.93575  -0.01097  -0.05898   0.00000  -0.06070   1.87505
    A4        1.90503   0.00462   0.03739   0.00000   0.03748   1.94252
    A5        1.89649   0.00657   0.01332   0.00000   0.01342   1.90991
    A6        1.93567  -0.01097  -0.05897   0.00000  -0.06069   1.87498
    A7        1.72071   0.04113   0.13752   0.00000   0.13752   1.85822
    A8        2.27523  -0.02344  -0.08079   0.00000  -0.08079   2.19444
    A9        2.28725  -0.01770  -0.05673   0.00000  -0.05673   2.23052
    D1        1.04770  -0.00315  -0.01876   0.00000  -0.01703   1.03067
    D2       -2.09388  -0.00315  -0.01875   0.00000  -0.01702  -2.11090
    D3       -3.14131  -0.00001  -0.00006   0.00000  -0.00005  -3.14137
    D4        0.00028  -0.00001  -0.00005   0.00000  -0.00005   0.00024
    D5       -1.04732   0.00316   0.01881   0.00000   0.01708  -1.03024
    D6        2.09428   0.00316   0.01882   0.00000   0.01709   2.11137
         Item               Value     Threshold  Converged?
 Maximum Force            0.122646     0.000450     NO 
 RMS     Force            0.039853     0.000300     NO 
 Maximum Displacement     0.335156     0.001800     NO 
 RMS     Displacement     0.154383     0.001200     NO 
 Predicted change in Energy=-9.621532D-02
 GradGradGradGradGradGradGradGradGradGradGradGradGradGradGradGradGradGrad

                          Input orientation:                          
 ---------------------------------------------------------------------
 Center     Atomic      Atomic             Coordinates (Angstroms)
 Number     Number       Type             X           Y           Z
 ---------------------------------------------------------------------
      1          6           0        0.256479    0.005732   -0.000004
      2          9           0        0.663760   -0.615308   -1.055581
      3          9           0        0.647424    1.242229   -0.000740
      4          9           0        0.663668   -0.614051    1.056358
      5          7           0       -1.213177   -0.042619    0.000014
      6          1           0       -1.472423   -1.039018    0.000828
      7          1           0       -1.817954    0.742233   -0.000651
 ---------------------------------------------------------------------
                    Distance matrix (angstroms):
                    1          2          3          4          5
     1  C    0.000000
     2  F    1.290663   0.000000
     3  F    1.296828   2.136212   0.000000
     4  F    1.290671   2.111939   2.136233   0.000000
     5  N    1.470452   2.228261   2.261121   2.228216   0.000000
     6  H    2.020051   2.420497   3.114135   2.420253   1.029572
     7  H    2.201297   3.019056   2.515568   3.019142   0.990832
                    6          7
     6  H    0.000000
     7  H    1.814455   0.000000
 Stoichiometry    CH2F3N
 Framework group  C1[X(CH2F3N)]
 Deg. of freedom    15
 Full point group                 C1      NOp   1
 Largest Abelian subgroup         C1      NOp   1
 Largest concise Abelian subgroup C1      NOp   1
                         Standard orientation:                         
 ---------------------------------------------------------------------
 Center     Atomic      Atomic             Coordinates (Angstroms)
 Number     Number       Type             X           Y           Z
 ---------------------------------------------------------------------
      1          6           0       -0.078614    0.006743    0.000000
      2          9           0       -0.406905   -0.658630    1.056084
      3          9           0       -0.618110    1.186026   -0.000343
      4          9           0       -0.406629   -0.659147   -1.055855
      5          7           0        1.385894    0.138822    0.000105
      6          1           0        1.765267   -0.818307    0.000157
      7          1           0        1.889953    0.991859    0.000134
 ---------------------------------------------------------------------
 Rotational constants (GHZ):      5.7876706      5.6448247      5.4866173
 Standard basis: 6-311+G(2df,p) (5D, 7F)
 There are   182 symmetry adapted basis functions of A   symmetry.
 Integral buffers will be    131072 words long.
 Raffenetti 1 integral format.
 Two-electron integral symmetry is turned on.
   182 basis functions,   276 primitive gaussians,   207 cartesian basis functions
    21 alpha electrons       21 beta electrons
       nuclear repulsion energy       207.6783100299 Hartrees.
 NAtoms=    7 NActive=    7 NUniq=    7 SFac= 7.50D-01 NAtFMM=   80 NAOKFM=F Big=F
 One-electron integrals computed using PRISM.
 NBasis=   182 RedAO= T  NBF=   182
 NBsUse=   182 1.00D-06 NBFU=   182
 Initial guess read from the read-write file.
 B after Tr=     0.000000    0.000000    0.000000
         Rot=    1.000000    0.000000    0.000000    0.000000 Ang=   0.00 deg.
 Initial guess orbital symmetries:
       Occupied  (A) (A) (A) (A) (A) (A) (A) (A) (A) (A) (A) (A)
                 (A) (A) (A) (A) (A) (A) (A) (A) (A)
       Virtual   (A) (A) (A) (A) (A) (A) (A) (A) (A) (A) (A) (A)
                 (A) (A) (A) (A) (A) (A) (A) (A) (A) (A) (A) (A)
                 (A) (A) (A) (A) (A) (A) (A) (A) (A) (A) (A) (A)
                 (A) (A) (A) (A) (A) (A) (A) (A) (A) (A) (A) (A)
                 (A) (A) (A) (A) (A) (A) (A) (A) (A) (A) (A) (A)
                 (A) (A) (A) (A) (A) (A) (A) (A) (A) (A) (A) (A)
                 (A) (A) (A) (A) (A) (A) (A) (A) (A) (A) (A) (A)
                 (A) (A) (A) (A) (A) (A) (A) (A) (A) (A) (A) (A)
                 (A) (A) (A) (A) (A) (A) (A) (A) (A) (A) (A) (A)
                 (A) (A) (A) (A) (A) (A) (A) (A) (A) (A) (A) (A)
                 (A) (A) (A) (A) (A) (A) (A) (A) (A) (A) (A) (A)
                 (A) (A) (A) (A) (A) (A) (A) (A) (A) (A) (A) (A)
                 (A) (A) (A) (A) (A) (A) (A) (A) (A) (A) (A) (A)
                 (A) (A) (A) (A) (A)
 Harris functional with IExCor=  205 diagonalized for initial guess.
 ExpMin= 4.38D-02 ExpMax= 1.14D+04 ExpMxC= 1.72D+03 IAcc=2 IRadAn=         0 AccDes= 0.00D+00
 HarFok:  IExCor=  205 AccDes= 0.00D+00 IRadAn=         0 IDoV= 1
 ScaDFX=  1.000000  1.000000  1.000000  1.000000
 FoFCou: FMM=F IPFlag=           0 FMFlag=      100000 FMFlg1=           0
         NFxFlg=           0 DoJE=T BraDBF=F KetDBF=T FulRan=T
         Omega=  0.000000  0.000000  1.000000  0.000000  0.000000 ICntrl=     500 IOpCl=  0
         NMat0=    1 NMatS0=    1 NMatT0=    0 NMatD0=    1 NMtDS0=    0 NMtDT0=    0
         I1Cent=           4 NGrid=           0.
 Petite list used in FoFCou.
 Requested convergence on RMS density matrix=1.00D-08 within 128 cycles.
 Requested convergence on MAX density matrix=1.00D-06.
 Requested convergence on             energy=1.00D-06.
 No special actions if energy rises.
 Keep R1 ints in memory in canonical form, NReq=236387357.
 SCF Done:  E(RHF) =  -391.937783142     A.U. after   13 cycles
             Convg  =    0.2619D-08             -V/T =  2.0004
 Calling FoFJK, ICntrl=      2127 FMM=F ISym2X=0 I1Cent= 0 IOpClX= 0 NMat=1 NMatS=1 NMatT=0.
 ***** Axes restored to original set *****
 -------------------------------------------------------------------
 Center     Atomic                   Forces (Hartrees/Bohr)
 Number     Number              X              Y              Z
 -------------------------------------------------------------------
      1        6          -0.111460636    0.016332240   -0.000007480
      2        9           0.026991506   -0.006059650   -0.009504550
      3        9           0.014382850    0.002093881   -0.000000690
      4        9           0.026991918   -0.006045484    0.009507125
      5        7           0.053684146   -0.041609683    0.000037036
      6        1          -0.013348339    0.040046409   -0.000033548
      7        1           0.002758555   -0.004757712    0.000002108
 -------------------------------------------------------------------
 Cartesian Forces:  Max     0.111460636 RMS     0.031651416

 GradGradGradGradGradGradGradGradGradGradGradGradGradGradGradGradGradGrad
 Berny optimization.
 Using GEDIIS/GDIIS optimizer.
 Internal  Forces:  Max     0.042863216 RMS     0.020596788
 Search for a local minimum.
 Step number   3 out of a maximum of   31
 All quantities printed in internal units (Hartrees-Bohrs-Radians)
 Mixed Optimization -- RFO/linear search
 Update second derivatives using D2CorX and points    2    3
 Use linear search instead of GDIIS.
     Eigenvalues ---    0.00230   0.00230   0.11429   0.11852   0.13329
     Eigenvalues ---    0.15205   0.16006   0.17987   0.24983   0.25000
     Eigenvalues ---    0.34865   0.47652   0.64530   0.64861   0.66938
     Eigenvalues --- 1000.000001000.000001000.000001000.000001000.00000
     Eigenvalues --- 1000.00000
 RFO step:  Lambda=-2.96039389D-02 EMin= 2.30000000D-03
 Quartic linear search produced a step of  0.20715.
 Iteration  1 RMS(Cart)=  0.09189062 RMS(Int)=  0.01162598
 Iteration  2 RMS(Cart)=  0.01424776 RMS(Int)=  0.00315765
 Iteration  3 RMS(Cart)=  0.00003700 RMS(Int)=  0.00315732
 Iteration  4 RMS(Cart)=  0.00000022 RMS(Int)=  0.00315732
 Variable       Old X    -DE/DX   Delta X   Delta X   Delta X     New X
                                 (Linear)    (Quad)   (Total)
    R1        2.43900   0.01921  -0.00501   0.03384   0.02883   2.46783
    R2        2.45065   0.00633  -0.00303   0.01139   0.00836   2.45901
    R3        2.43902   0.01920  -0.00500   0.03383   0.02882   2.46784
    R4        2.77875  -0.04286  -0.08660  -0.13562  -0.22222   2.55653
    R5        1.94561  -0.03540  -0.07820  -0.08377  -0.16196   1.78365
    R6        1.87240  -0.00545  -0.00239  -0.01092  -0.01331   1.85909
    A1        1.94250  -0.02172   0.00774  -0.09920  -0.09377   1.84873
    A2        1.91640  -0.02624   0.00642  -0.10138  -0.10403   1.81237
    A3        1.87505   0.03124  -0.01257   0.13994   0.12086   1.99590
    A4        1.94252  -0.02172   0.00776  -0.09924  -0.09378   1.84873
    A5        1.90991   0.01128   0.00278   0.03812   0.03825   1.94816
    A6        1.87498   0.03124  -0.01257   0.13996   0.12088   1.99586
    A7        1.85822   0.02939   0.02849   0.13626   0.16474   2.02297
    A8        2.19444  -0.01402  -0.01673  -0.06061  -0.07735   2.11709
    A9        2.23052  -0.01537  -0.01175  -0.07564  -0.08740   2.14313
    D1        1.03067   0.00098  -0.00353   0.01385   0.01281   1.04348
    D2       -2.11090   0.00098  -0.00353   0.01387   0.01283  -2.09807
    D3       -3.14137   0.00000  -0.00001   0.00001   0.00000  -3.14137
    D4        0.00024   0.00000  -0.00001   0.00003   0.00002   0.00026
    D5       -1.03024  -0.00098   0.00354  -0.01387  -0.01282  -1.04306
    D6        2.11137  -0.00098   0.00354  -0.01385  -0.01280   2.09857
         Item               Value     Threshold  Converged?
 Maximum Force            0.042863     0.000450     NO 
 RMS     Force            0.020597     0.000300     NO 
 Maximum Displacement     0.174488     0.001800     NO 
 RMS     Displacement     0.091558     0.001200     NO 
 Predicted change in Energy=-2.461602D-02
 GradGradGradGradGradGradGradGradGradGradGradGradGradGradGradGradGradGrad

                          Input orientation:                          
 ---------------------------------------------------------------------
 Center     Atomic      Atomic             Coordinates (Angstroms)
 Number     Number       Type             X           Y           Z
 ---------------------------------------------------------------------
      1          6           0        0.164144   -0.021481    0.000017
      2          9           0        0.732446   -0.592862   -1.027594
      3          9           0        0.581566    1.211000   -0.000714
      4          9           0        0.732400   -0.591635    1.028340
      5          7           0       -1.186968   -0.090179    0.000058
      6          1           0       -1.555715   -0.959032    0.000762
      7          1           0       -1.740097    0.723387   -0.000644
 ---------------------------------------------------------------------
                    Distance matrix (angstroms):
                    1          2          3          4          5
     1  C    0.000000
     2  F    1.305920   0.000000
     3  F    1.301250   2.081145   0.000000
     4  F    1.305924   2.055934   2.081152   0.000000
     5  N    1.352857   2.234482   2.195627   2.234456   0.000000
     6  H    1.958805   2.535208   3.045819   2.535028   0.943865
     7  H    2.044741   2.983389   2.372317   2.983510   0.983789
                    6          7
     6  H    0.000000
     7  H    1.692493   0.000000
 Stoichiometry    CH2F3N
 Framework group  C1[X(CH2F3N)]
 Deg. of freedom    15
 Full point group                 C1      NOp   1
 Largest Abelian subgroup         C1      NOp   1
 Largest concise Abelian subgroup C1      NOp   1
                         Standard orientation:                         
 ---------------------------------------------------------------------
 Center     Atomic      Atomic             Coordinates (Angstroms)
 Number     Number       Type             X           Y           Z
 ---------------------------------------------------------------------
      1          6           0        0.021258   -0.004818    0.000008
      2          9           0       -0.582337   -0.537910    1.028071
      3          9           0       -0.316639    1.251795   -0.000289
      4          9           0       -0.582255   -0.538382   -1.027863
      5          7           0        1.365229   -0.159622    0.000067
      6          1           0        1.677763   -1.050242    0.000090
      7          1           0        1.969163    0.616977    0.000116
 ---------------------------------------------------------------------
 Rotational constants (GHZ):      6.1154815      5.7678616      5.6181053
 Standard basis: 6-311+G(2df,p) (5D, 7F)
 There are   182 symmetry adapted basis functions of A   symmetry.
 Integral buffers will be    131072 words long.
 Raffenetti 1 integral format.
 Two-electron integral symmetry is turned on.
   182 basis functions,   276 primitive gaussians,   207 cartesian basis functions
    21 alpha electrons       21 beta electrons
       nuclear repulsion energy       210.9134633597 Hartrees.
 NAtoms=    7 NActive=    7 NUniq=    7 SFac= 7.50D-01 NAtFMM=   80 NAOKFM=F Big=F
 One-electron integrals computed using PRISM.
 NBasis=   182 RedAO= T  NBF=   182
 NBsUse=   182 1.00D-06 NBFU=   182
 Initial guess read from the read-write file.
 B after Tr=     0.000000    0.000000    0.000000
         Rot=    1.000000    0.000000    0.000000    0.000000 Ang=   0.00 deg.
 Initial guess orbital symmetries:
       Occupied  (A) (A) (A) (A) (A) (A) (A) (A) (A) (A) (A) (A)
                 (A) (A) (A) (A) (A) (A) (A) (A) (A)
       Virtual   (A) (A) (A) (A) (A) (A) (A) (A) (A) (A) (A) (A)
                 (A) (A) (A) (A) (A) (A) (A) (A) (A) (A) (A) (A)
                 (A) (A) (A) (A) (A) (A) (A) (A) (A) (A) (A) (A)
                 (A) (A) (A) (A) (A) (A) (A) (A) (A) (A) (A) (A)
                 (A) (A) (A) (A) (A) (A) (A) (A) (A) (A) (A) (A)
                 (A) (A) (A) (A) (A) (A) (A) (A) (A) (A) (A) (A)
                 (A) (A) (A) (A) (A) (A) (A) (A) (A) (A) (A) (A)
                 (A) (A) (A) (A) (A) (A) (A) (A) (A) (A) (A) (A)
                 (A) (A) (A) (A) (A) (A) (A) (A) (A) (A) (A) (A)
                 (A) (A) (A) (A) (A) (A) (A) (A) (A) (A) (A) (A)
                 (A) (A) (A) (A) (A) (A) (A) (A) (A) (A) (A) (A)
                 (A) (A) (A) (A) (A) (A) (A) (A) (A) (A) (A) (A)
                 (A) (A) (A) (A) (A) (A) (A) (A) (A) (A) (A) (A)
                 (A) (A) (A) (A) (A)
 Harris functional with IExCor=  205 diagonalized for initial guess.
 ExpMin= 4.38D-02 ExpMax= 1.14D+04 ExpMxC= 1.72D+03 IAcc=2 IRadAn=         0 AccDes= 0.00D+00
 HarFok:  IExCor=  205 AccDes= 0.00D+00 IRadAn=         0 IDoV= 1
 ScaDFX=  1.000000  1.000000  1.000000  1.000000
 FoFCou: FMM=F IPFlag=           0 FMFlag=      100000 FMFlg1=           0
         NFxFlg=           0 DoJE=T BraDBF=F KetDBF=T FulRan=T
         Omega=  0.000000  0.000000  1.000000  0.000000  0.000000 ICntrl=     500 IOpCl=  0
         NMat0=    1 NMatS0=    1 NMatT0=    0 NMatD0=    1 NMtDS0=    0 NMtDT0=    0
         I1Cent=           4 NGrid=           0.
 Petite list used in FoFCou.
 Requested convergence on RMS density matrix=1.00D-08 within 128 cycles.
 Requested convergence on MAX density matrix=1.00D-06.
 Requested convergence on             energy=1.00D-06.
 No special actions if energy rises.
 Keep R1 ints in memory in canonical form, NReq=236387357.
 SCF Done:  E(RHF) =  -391.950237368     A.U. after   12 cycles
             Convg  =    0.6255D-08             -V/T =  1.9994
 Calling FoFJK, ICntrl=      2127 FMM=F ISym2X=0 I1Cent= 0 IOpClX= 0 NMat=1 NMatS=1 NMatT=0.
 ***** Axes restored to original set *****
 -------------------------------------------------------------------
 Center     Atomic                   Forces (Hartrees/Bohr)
 Number     Number              X              Y              Z
 -------------------------------------------------------------------
      1        6           0.025042104    0.011741838   -0.000000505
      2        9           0.000377818   -0.013424625   -0.021517398
      3        9          -0.004995580    0.022097125   -0.000016062
      4        9           0.000372874   -0.013399100    0.021527804
      5        7           0.010912500    0.037118360   -0.000027126
      6        1          -0.029834585   -0.046809528    0.000036823
      7        1          -0.001875132    0.002675930   -0.000003536
 -------------------------------------------------------------------
 Cartesian Forces:  Max     0.046809528 RMS     0.018456472

 GradGradGradGradGradGradGradGradGradGradGradGradGradGradGradGradGradGrad
 Berny optimization.
 Using GEDIIS/GDIIS optimizer.
 Internal  Forces:  Max     0.054745186 RMS     0.016965721
 Search for a local minimum.
 Step number   4 out of a maximum of   31
 All quantities printed in internal units (Hartrees-Bohrs-Radians)
 Mixed Optimization -- RFO/linear search
 Update second derivatives using D2CorX and points    3    4
 DE= -1.25D-02 DEPred=-2.46D-02 R= 5.06D-01
 SS=  1.41D+00  RLast= 4.22D-01 DXNew= 8.4853D-01 1.2658D+00
 Trust test= 5.06D-01 RLast= 4.22D-01 DXMaxT set to 8.49D-01
 Use linear search instead of GDIIS.
     Eigenvalues ---    0.00230   0.00230   0.09857   0.10141   0.12731
     Eigenvalues ---    0.15205   0.16009   0.24811   0.25000   0.32133
     Eigenvalues ---    0.40154   0.47744   0.64530   0.64662   0.67388
     Eigenvalues --- 1000.000001000.000001000.000001000.000001000.00000
     Eigenvalues --- 1000.00000
 RFO step:  Lambda=-8.56258415D-03 EMin= 2.30000000D-03
 Quartic linear search produced a step of -0.26934.
 Iteration  1 RMS(Cart)=  0.05035121 RMS(Int)=  0.00244868
 Iteration  2 RMS(Cart)=  0.00245176 RMS(Int)=  0.00064258
 Iteration  3 RMS(Cart)=  0.00000844 RMS(Int)=  0.00064253
 Iteration  4 RMS(Cart)=  0.00000000 RMS(Int)=  0.00064253
 Variable       Old X    -DE/DX   Delta X   Delta X   Delta X     New X
                                 (Linear)    (Quad)   (Total)
    R1        2.46783   0.02297  -0.00777   0.03737   0.02961   2.49744
    R2        2.45901   0.01933  -0.00225   0.02488   0.02263   2.48163
    R3        2.46784   0.02296  -0.00776   0.03736   0.02960   2.49744
    R4        2.55653   0.02113   0.05985  -0.06326  -0.00341   2.55312
    R5        1.78365   0.05475   0.04362   0.10086   0.14448   1.92813
    R6        1.85909   0.00327   0.00358  -0.00098   0.00261   1.86170
    A1        1.84873   0.01397   0.02525  -0.00132   0.02425   1.87298
    A2        1.81237   0.01278   0.02802  -0.01227   0.01767   1.83005
    A3        1.99590  -0.01142  -0.03255   0.01628  -0.01501   1.98089
    A4        1.84873   0.01397   0.02526  -0.00129   0.02429   1.87302
    A5        1.94816  -0.01301  -0.01030  -0.01916  -0.02910   1.91906
    A6        1.99586  -0.01142  -0.03256   0.01630  -0.01500   1.98086
    A7        2.02297   0.01088  -0.04437   0.13570   0.09133   2.11429
    A8        2.11709  -0.00540   0.02083  -0.06649  -0.04565   2.07144
    A9        2.14313  -0.00548   0.02354  -0.06921  -0.04567   2.09745
    D1        1.04348  -0.00028  -0.00345   0.00437   0.00032   1.04380
    D2       -2.09807  -0.00028  -0.00346   0.00450   0.00043  -2.09764
    D3       -3.14137   0.00000   0.00000  -0.00006  -0.00006  -3.14143
    D4        0.00026   0.00000  -0.00001   0.00006   0.00006   0.00032
    D5       -1.04306   0.00028   0.00345  -0.00444  -0.00038  -1.04344
    D6        2.09857   0.00029   0.00345  -0.00431  -0.00026   2.09831
         Item               Value     Threshold  Converged?
 Maximum Force            0.054745     0.000450     NO 
 RMS     Force            0.016966     0.000300     NO 
 Maximum Displacement     0.160758     0.001800     NO 
 RMS     Displacement     0.050857     0.001200     NO 
 Predicted change in Energy=-6.580973D-03
 GradGradGradGradGradGradGradGradGradGradGradGradGradGradGradGradGradGrad

                          Input orientation:                          
 ---------------------------------------------------------------------
 Center     Atomic      Atomic             Coordinates (Angstroms)
 Number     Number       Type             X           Y           Z
 ---------------------------------------------------------------------
      1          6           0        0.181916   -0.016110    0.000029
      2          9           0        0.744575   -0.593647   -1.047091
      3          9           0        0.554928    1.243025   -0.000740
      4          9           0        0.744567   -0.592415    1.047829
      5          7           0       -1.166686   -0.097464    0.000093
      6          1           0       -1.640785   -1.000949    0.000788
      7          1           0       -1.690739    0.736758   -0.000685
 ---------------------------------------------------------------------
                    Distance matrix (angstroms):
                    1          2          3          4          5
     1  C    0.000000
     2  F    1.321588   0.000000
     3  F    1.313224   2.122305   0.000000
     4  F    1.321586   2.094921   2.122334   0.000000
     5  N    1.351053   2.235108   2.181940   2.235087   0.000000
     6  H    2.071750   2.637023   3.139518   2.636872   1.020321
     7  H    2.018327   2.965754   2.302026   2.965939   0.985169
                    6          7
     6  H    0.000000
     7  H    1.738425   0.000000
 Stoichiometry    CH2F3N
 Framework group  C1[X(CH2F3N)]
 Deg. of freedom    15
 Full point group                 C1      NOp   1
 Largest Abelian subgroup         C1      NOp   1
 Largest concise Abelian subgroup C1      NOp   1
                         Standard orientation:                         
 ---------------------------------------------------------------------
 Center     Atomic      Atomic             Coordinates (Angstroms)
 Number     Number       Type             X           Y           Z
 ---------------------------------------------------------------------
      1          6           0        0.007936   -0.004278   -0.000003
      2          9           0       -0.608560   -0.522912    1.047635
      3          9           0       -0.239891    1.285349   -0.000438
      4          9           0       -0.608532   -0.523661   -1.047285
      5          7           0        1.342075   -0.217397    0.000069
      6          1           0        1.725355   -1.162993    0.000245
      7          1           0        1.945355    0.561455    0.000083
 ---------------------------------------------------------------------
 Rotational constants (GHZ):      5.9238838      5.6727242      5.5521965
 Standard basis: 6-311+G(2df,p) (5D, 7F)
 There are   182 symmetry adapted basis functions of A   symmetry.
 Integral buffers will be    131072 words long.
 Raffenetti 1 integral format.
 Two-electron integral symmetry is turned on.
   182 basis functions,   276 primitive gaussians,   207 cartesian basis functions
    21 alpha electrons       21 beta electrons
       nuclear repulsion energy       208.6290497204 Hartrees.
 NAtoms=    7 NActive=    7 NUniq=    7 SFac= 7.50D-01 NAtFMM=   80 NAOKFM=F Big=F
 One-electron integrals computed using PRISM.
 NBasis=   182 RedAO= T  NBF=   182
 NBsUse=   182 1.00D-06 NBFU=   182
 Initial guess read from the read-write file.
 B after Tr=     0.000000    0.000000    0.000000
         Rot=    1.000000    0.000000    0.000000    0.000000 Ang=   0.00 deg.
 Initial guess orbital symmetries:
       Occupied  (A) (A) (A) (A) (A) (A) (A) (A) (A) (A) (A) (A)
                 (A) (A) (A) (A) (A) (A) (A) (A) (A)
       Virtual   (A) (A) (A) (A) (A) (A) (A) (A) (A) (A) (A) (A)
                 (A) (A) (A) (A) (A) (A) (A) (A) (A) (A) (A) (A)
                 (A) (A) (A) (A) (A) (A) (A) (A) (A) (A) (A) (A)
                 (A) (A) (A) (A) (A) (A) (A) (A) (A) (A) (A) (A)
                 (A) (A) (A) (A) (A) (A) (A) (A) (A) (A) (A) (A)
                 (A) (A) (A) (A) (A) (A) (A) (A) (A) (A) (A) (A)
                 (A) (A) (A) (A) (A) (A) (A) (A) (A) (A) (A) (A)
                 (A) (A) (A) (A) (A) (A) (A) (A) (A) (A) (A) (A)
                 (A) (A) (A) (A) (A) (A) (A) (A) (A) (A) (A) (A)
                 (A) (A) (A) (A) (A) (A) (A) (A) (A) (A) (A) (A)
                 (A) (A) (A) (A) (A) (A) (A) (A) (A) (A) (A) (A)
                 (A) (A) (A) (A) (A) (A) (A) (A) (A) (A) (A) (A)
                 (A) (A) (A) (A) (A) (A) (A) (A) (A) (A) (A) (A)
                 (A) (A) (A) (A) (A)
 Harris functional with IExCor=  205 diagonalized for initial guess.
 ExpMin= 4.38D-02 ExpMax= 1.14D+04 ExpMxC= 1.72D+03 IAcc=2 IRadAn=         0 AccDes= 0.00D+00
 HarFok:  IExCor=  205 AccDes= 0.00D+00 IRadAn=         0 IDoV= 1
 ScaDFX=  1.000000  1.000000  1.000000  1.000000
 FoFCou: FMM=F IPFlag=           0 FMFlag=      100000 FMFlg1=           0
         NFxFlg=           0 DoJE=T BraDBF=F KetDBF=T FulRan=T
         Omega=  0.000000  0.000000  1.000000  0.000000  0.000000 ICntrl=     500 IOpCl=  0
         NMat0=    1 NMatS0=    1 NMatT0=    0 NMatD0=    1 NMtDS0=    0 NMtDT0=    0
         I1Cent=           4 NGrid=           0.
 Petite list used in FoFCou.
 Requested convergence on RMS density matrix=1.00D-08 within 128 cycles.
 Requested convergence on MAX density matrix=1.00D-06.
 Requested convergence on             energy=1.00D-06.
 No special actions if energy rises.
 Keep R1 ints in memory in canonical form, NReq=236387357.
 SCF Done:  E(RHF) =  -391.953893258     A.U. after   10 cycles
             Convg  =    0.5150D-08             -V/T =  2.0001
 Calling FoFJK, ICntrl=      2127 FMM=F ISym2X=0 I1Cent= 0 IOpClX= 0 NMat=1 NMatS=1 NMatT=0.
 ***** Axes restored to original set *****
 -------------------------------------------------------------------
 Center     Atomic                   Forces (Hartrees/Bohr)
 Number     Number              X              Y              Z
 -------------------------------------------------------------------
      1        6           0.022732728   -0.000414553   -0.000000181
      2        9           0.000381332   -0.001312358   -0.001605745
      3        9          -0.001333432    0.001257616    0.000000721
      4        9           0.000376003   -0.001306673    0.001602529
      5        7          -0.033952532   -0.025623960    0.000028249
      6        1           0.014967005    0.025569213   -0.000021514
      7        1          -0.003171104    0.001830714   -0.000004060
 -------------------------------------------------------------------
 Cartesian Forces:  Max     0.033952532 RMS     0.012401493

 GradGradGradGradGradGradGradGradGradGradGradGradGradGradGradGradGradGrad
 Berny optimization.
 Using GEDIIS/GDIIS optimizer.
 Internal  Forces:  Max     0.029595828 RMS     0.008185894
 Search for a local minimum.
 Step number   5 out of a maximum of   31
 All quantities printed in internal units (Hartrees-Bohrs-Radians)
 Mixed Optimization -- RFO/linear search
 Update second derivatives using D2CorX and points    3    4    5
 DE= -3.66D-03 DEPred=-6.58D-03 R= 5.56D-01
 SS=  1.41D+00  RLast= 1.96D-01 DXNew= 1.4270D+00 5.8832D-01
 Trust test= 5.56D-01 RLast= 1.96D-01 DXMaxT set to 8.49D-01
 Use linear search instead of GDIIS.
     Eigenvalues ---    0.00230   0.00230   0.10012   0.10564   0.10597
     Eigenvalues ---    0.15989   0.24011   0.25000   0.26385   0.33202
     Eigenvalues ---    0.46226   0.47827   0.63573   0.64530   0.66006
     Eigenvalues --- 1000.000001000.000001000.000001000.000001000.00000
     Eigenvalues --- 1000.00000
 RFO step:  Lambda=-2.85505216D-03 EMin= 2.30000000D-03
 Quartic linear search produced a step of -0.29415.
 Iteration  1 RMS(Cart)=  0.02706570 RMS(Int)=  0.00005720
 Iteration  2 RMS(Cart)=  0.00005171 RMS(Int)=  0.00002099
 Iteration  3 RMS(Cart)=  0.00000000 RMS(Int)=  0.00002099
 Variable       Old X    -DE/DX   Delta X   Delta X   Delta X     New X
                                 (Linear)    (Quad)   (Total)
    R1        2.49744   0.00201  -0.00871   0.01763   0.00892   2.50636
    R2        2.48163   0.00083  -0.00666   0.01265   0.00599   2.48762
    R3        2.49744   0.00200  -0.00871   0.01762   0.00891   2.50635
    R4        2.55312   0.02201   0.00100   0.09095   0.09195   2.64507
    R5        1.92813  -0.02960  -0.04250  -0.02781  -0.07031   1.85782
    R6        1.86170   0.00324  -0.00077   0.00511   0.00434   1.86604
    A1        1.87298   0.00149  -0.00713   0.01429   0.00720   1.88019
    A2        1.83005   0.00043  -0.00520   0.00818   0.00300   1.83305
    A3        1.98089  -0.00033   0.00442  -0.00696  -0.00250   1.97839
    A4        1.87302   0.00149  -0.00714   0.01430   0.00719   1.88022
    A5        1.91906  -0.00240   0.00856  -0.01937  -0.01076   1.90830
    A6        1.98086  -0.00034   0.00441  -0.00697  -0.00252   1.97834
    A7        2.11429  -0.00283  -0.02686   0.03134   0.00448   2.11877
    A8        2.07144   0.00301   0.01343  -0.00998   0.00344   2.07488
    A9        2.09745  -0.00018   0.01344  -0.02136  -0.00792   2.08953
    D1        1.04380   0.00003  -0.00009   0.00019   0.00011   1.04391
    D2       -2.09764   0.00003  -0.00013   0.00016   0.00005  -2.09759
    D3       -3.14143   0.00000   0.00002  -0.00001   0.00000  -3.14143
    D4        0.00032   0.00000  -0.00002  -0.00004  -0.00006   0.00026
    D5       -1.04344  -0.00003   0.00011  -0.00022  -0.00012  -1.04356
    D6        2.09831  -0.00003   0.00008  -0.00024  -0.00018   2.09813
         Item               Value     Threshold  Converged?
 Maximum Force            0.029596     0.000450     NO 
 RMS     Force            0.008186     0.000300     NO 
 Maximum Displacement     0.060681     0.001800     NO 
 RMS     Displacement     0.027037     0.001200     NO 
 Predicted change in Energy=-2.052673D-03
 GradGradGradGradGradGradGradGradGradGradGradGradGradGradGradGradGradGrad

                          Input orientation:                          
 ---------------------------------------------------------------------
 Center     Atomic      Atomic             Coordinates (Angstroms)
 Number     Number       Type             X           Y           Z
 ---------------------------------------------------------------------
      1          6           0        0.203473   -0.019370    0.000023
      2          9           0        0.765908   -0.598964   -1.052037
      3          9           0        0.562095    1.247233   -0.000750
      4          9           0        0.765869   -0.597707    1.052787
      5          7           0       -1.193586   -0.105515    0.000086
      6          1           0       -1.653132   -0.974613    0.000759
      7          1           0       -1.722849    0.728134   -0.000645
 ---------------------------------------------------------------------
                    Distance matrix (angstroms):
                    1          2          3          4          5
     1  C    0.000000
     2  F    1.326308   0.000000
     3  F    1.316394   2.134288   0.000000
     4  F    1.326301   2.104824   2.134307   0.000000
     5  N    1.399712   2.278173   2.216381   2.278135   0.000000
     6  H    2.087935   2.664816   3.137488   2.664655   0.983115
     7  H    2.066272   3.010070   2.343168   3.010199   0.987467
                    6          7
     6  H    0.000000
     7  H    1.704174   0.000000
 Stoichiometry    CH2F3N
 Framework group  C1[X(CH2F3N)]
 Deg. of freedom    15
 Full point group                 C1      NOp   1
 Largest Abelian subgroup         C1      NOp   1
 Largest concise Abelian subgroup C1      NOp   1
                         Standard orientation:                         
 ---------------------------------------------------------------------
 Center     Atomic      Atomic             Coordinates (Angstroms)
 Number     Number       Type             X           Y           Z
 ---------------------------------------------------------------------
      1          6           0       -0.005414   -0.003442    0.000000
      2          9           0       -0.624716   -0.520847    1.052545
      3          9           0       -0.231203    1.293444   -0.000395
      4          9           0       -0.624601   -0.521507   -1.052279
      5          7           0        1.375258   -0.233522    0.000111
      6          1           0        1.742515   -1.145463    0.000255
      7          1           0        1.987851    0.540958    0.000126
 ---------------------------------------------------------------------
 Rotational constants (GHZ):      5.8621458      5.5238899      5.4032740
 Standard basis: 6-311+G(2df,p) (5D, 7F)
 There are   182 symmetry adapted basis functions of A   symmetry.
 Integral buffers will be    131072 words long.
 Raffenetti 1 integral format.
 Two-electron integral symmetry is turned on.
   182 basis functions,   276 primitive gaussians,   207 cartesian basis functions
    21 alpha electrons       21 beta electrons
       nuclear repulsion energy       206.6929009577 Hartrees.
 NAtoms=    7 NActive=    7 NUniq=    7 SFac= 7.50D-01 NAtFMM=   80 NAOKFM=F Big=F
 One-electron integrals computed using PRISM.
 NBasis=   182 RedAO= T  NBF=   182
 NBsUse=   182 1.00D-06 NBFU=   182
 Initial guess read from the read-write file.
 B after Tr=     0.000000    0.000000    0.000000
         Rot=    1.000000    0.000000    0.000000    0.000000 Ang=   0.00 deg.
 Initial guess orbital symmetries:
       Occupied  (A) (A) (A) (A) (A) (A) (A) (A) (A) (A) (A) (A)
                 (A) (A) (A) (A) (A) (A) (A) (A) (A)
       Virtual   (A) (A) (A) (A) (A) (A) (A) (A) (A) (A) (A) (A)
                 (A) (A) (A) (A) (A) (A) (A) (A) (A) (A) (A) (A)
                 (A) (A) (A) (A) (A) (A) (A) (A) (A) (A) (A) (A)
                 (A) (A) (A) (A) (A) (A) (A) (A) (A) (A) (A) (A)
                 (A) (A) (A) (A) (A) (A) (A) (A) (A) (A) (A) (A)
                 (A) (A) (A) (A) (A) (A) (A) (A) (A) (A) (A) (A)
                 (A) (A) (A) (A) (A) (A) (A) (A) (A) (A) (A) (A)
                 (A) (A) (A) (A) (A) (A) (A) (A) (A) (A) (A) (A)
                 (A) (A) (A) (A) (A) (A) (A) (A) (A) (A) (A) (A)
                 (A) (A) (A) (A) (A) (A) (A) (A) (A) (A) (A) (A)
                 (A) (A) (A) (A) (A) (A) (A) (A) (A) (A) (A) (A)
                 (A) (A) (A) (A) (A) (A) (A) (A) (A) (A) (A) (A)
                 (A) (A) (A) (A) (A) (A) (A) (A) (A) (A) (A) (A)
                 (A) (A) (A) (A) (A)
 Harris functional with IExCor=  205 diagonalized for initial guess.
 ExpMin= 4.38D-02 ExpMax= 1.14D+04 ExpMxC= 1.72D+03 IAcc=2 IRadAn=         0 AccDes= 0.00D+00
 HarFok:  IExCor=  205 AccDes= 0.00D+00 IRadAn=         0 IDoV= 1
 ScaDFX=  1.000000  1.000000  1.000000  1.000000
 FoFCou: FMM=F IPFlag=           0 FMFlag=      100000 FMFlg1=           0
         NFxFlg=           0 DoJE=T BraDBF=F KetDBF=T FulRan=T
         Omega=  0.000000  0.000000  1.000000  0.000000  0.000000 ICntrl=     500 IOpCl=  0
         NMat0=    1 NMatS0=    1 NMatT0=    0 NMatD0=    1 NMtDS0=    0 NMtDT0=    0
         I1Cent=           4 NGrid=           0.
 Petite list used in FoFCou.
 Requested convergence on RMS density matrix=1.00D-08 within 128 cycles.
 Requested convergence on MAX density matrix=1.00D-06.
 Requested convergence on             energy=1.00D-06.
 No special actions if energy rises.
 Keep R1 ints in memory in canonical form, NReq=236387357.
 SCF Done:  E(RHF) =  -391.954538462     A.U. after   10 cycles
             Convg  =    0.3855D-08             -V/T =  2.0005
 Calling FoFJK, ICntrl=      2127 FMM=F ISym2X=0 I1Cent= 0 IOpClX= 0 NMat=1 NMatS=1 NMatT=0.
 ***** Axes restored to original set *****
 -------------------------------------------------------------------
 Center     Atomic                   Forces (Hartrees/Bohr)
 Number     Number              X              Y              Z
 -------------------------------------------------------------------
      1        6          -0.010303174   -0.002735448    0.000001243
      2        9          -0.005399682    0.003848889    0.006362925
      3        9          -0.002770719   -0.007028440    0.000004728
      4        9          -0.005398243    0.003841493   -0.006367633
      5        7           0.023165665    0.007521023   -0.000002244
      6        1          -0.000021842   -0.006875898    0.000004008
      7        1           0.000727995    0.001428380   -0.000003027
 -------------------------------------------------------------------
 Cartesian Forces:  Max     0.023165665 RMS     0.006840630

 GradGradGradGradGradGradGradGradGradGradGradGradGradGradGradGradGradGrad
 Berny optimization.
 Using GEDIIS/GDIIS optimizer.
 Internal  Forces:  Max     0.023954178 RMS     0.006429743
 Search for a local minimum.
 Step number   6 out of a maximum of   31
 All quantities printed in internal units (Hartrees-Bohrs-Radians)
 Mixed Optimization -- RFO/linear search
 Update second derivatives using D2CorX and points    3    4    5    6
 DE= -6.45D-04 DEPred=-2.05D-03 R= 3.14D-01
 Trust test= 3.14D-01 RLast= 1.18D-01 DXMaxT set to 8.49D-01
 Use linear search instead of GDIIS.
     Eigenvalues ---    0.00230   0.00230   0.10131   0.10695   0.13024
     Eigenvalues ---    0.15993   0.24160   0.25000   0.32907   0.37729
     Eigenvalues ---    0.47623   0.54152   0.64530   0.64593   0.72864
     Eigenvalues --- 1000.000001000.000001000.000001000.000001000.00000
     Eigenvalues --- 1000.00000
 RFO step:  Lambda=-3.93897438D-04 EMin= 2.29999998D-03
 Quartic linear search produced a step of -0.41124.
 Iteration  1 RMS(Cart)=  0.01870557 RMS(Int)=  0.00008232
 Iteration  2 RMS(Cart)=  0.00007609 RMS(Int)=  0.00000267
 Iteration  3 RMS(Cart)=  0.00000001 RMS(Int)=  0.00000267
 Variable       Old X    -DE/DX   Delta X   Delta X   Delta X     New X
                                 (Linear)    (Quad)   (Total)
    R1        2.50636  -0.00902  -0.00367  -0.00592  -0.00959   2.49677
    R2        2.48762  -0.00752  -0.00246  -0.00504  -0.00750   2.48013
    R3        2.50635  -0.00902  -0.00366  -0.00592  -0.00958   2.49676
    R4        2.64507  -0.02395  -0.03781  -0.00822  -0.04603   2.59904
    R5        1.85782   0.00609   0.02891  -0.01613   0.01278   1.87060
    R6        1.86604   0.00082  -0.00179   0.00306   0.00127   1.86731
    A1        1.88019   0.00133  -0.00296   0.00466   0.00170   1.88189
    A2        1.83305   0.00252  -0.00123   0.00646   0.00522   1.83827
    A3        1.97839  -0.00220   0.00103  -0.00503  -0.00400   1.97439
    A4        1.88022   0.00133  -0.00296   0.00465   0.00169   1.88191
    A5        1.90830  -0.00040   0.00442  -0.00446  -0.00003   1.90827
    A6        1.97834  -0.00220   0.00104  -0.00503  -0.00400   1.97435
    A7        2.11877  -0.00310  -0.00184  -0.02060  -0.02244   2.09633
    A8        2.07488   0.00026  -0.00142   0.00984   0.00843   2.08331
    A9        2.08953   0.00284   0.00326   0.01076   0.01401   2.10354
    D1        1.04391   0.00003  -0.00004   0.00024   0.00020   1.04410
    D2       -2.09759   0.00003  -0.00002   0.00102   0.00101  -2.09658
    D3       -3.14143   0.00000   0.00000  -0.00028  -0.00028   3.14148
    D4        0.00026   0.00000   0.00002   0.00050   0.00053   0.00079
    D5       -1.04356  -0.00003   0.00005  -0.00081  -0.00076  -1.04432
    D6        2.09813  -0.00003   0.00007  -0.00003   0.00004   2.09817
         Item               Value     Threshold  Converged?
 Maximum Force            0.023954     0.000450     NO 
 RMS     Force            0.006430     0.000300     NO 
 Maximum Displacement     0.052840     0.001800     NO 
 RMS     Displacement     0.018749     0.001200     NO 
 Predicted change in Energy=-7.659367D-04
 GradGradGradGradGradGradGradGradGradGradGradGradGradGradGradGradGradGrad

                          Input orientation:                          
 ---------------------------------------------------------------------
 Center     Atomic      Atomic             Coordinates (Angstroms)
 Number     Number       Type             X           Y           Z
 ---------------------------------------------------------------------
      1          6           0        0.193983   -0.018845    0.000072
      2          9           0        0.747294   -0.599019   -1.050122
      3          9           0        0.555996    1.242665   -0.000700
      4          9           0        0.747457   -0.597811    1.050840
      5          7           0       -1.179056   -0.098591    0.000260
      6          1           0       -1.625170   -0.982245    0.000724
      7          1           0       -1.712725    0.733042   -0.000851
 ---------------------------------------------------------------------
                    Distance matrix (angstroms):
                    1          2          3          4          5
     1  C    0.000000
     2  F    1.321236   0.000000
     3  F    1.312426   2.128305   0.000000
     4  F    1.321230   2.100962   2.128320   0.000000
     5  N    1.375353   2.250457   2.193029   2.250420   0.000000
     6  H    2.058509   2.622923   3.115721   2.622955   0.989880
     7  H    2.049602   2.987817   2.325255   2.988264   0.988138
                    6          7
     6  H    0.000000
     7  H    1.717521   0.000000
 Stoichiometry    CH2F3N
 Framework group  C1[X(CH2F3N)]
 Deg. of freedom    15
 Full point group                 C1      NOp   1
 Largest Abelian subgroup         C1      NOp   1
 Largest concise Abelian subgroup C1      NOp   1
                         Standard orientation:                         
 ---------------------------------------------------------------------
 Center     Atomic      Atomic             Coordinates (Angstroms)
 Number     Number       Type             X           Y           Z
 ---------------------------------------------------------------------
      1          6           0       -0.003204   -0.003263   -0.000015
      2          9           0       -0.619344   -0.515178    1.050689
      3          9           0       -0.217979    1.291470   -0.000316
      4          9           0       -0.619620   -0.515743   -1.050274
      5          7           0        1.351598   -0.240132   -0.000164
      6          1           0        1.693303   -1.169164    0.000120
      7          1           0        1.977224    0.524728    0.000223
 ---------------------------------------------------------------------
 Rotational constants (GHZ):      5.8974917      5.6158011      5.5036327
 Standard basis: 6-311+G(2df,p) (5D, 7F)
 There are   182 symmetry adapted basis functions of A   symmetry.
 Integral buffers will be    131072 words long.
 Raffenetti 1 integral format.
 Two-electron integral symmetry is turned on.
   182 basis functions,   276 primitive gaussians,   207 cartesian basis functions
    21 alpha electrons       21 beta electrons
       nuclear repulsion energy       207.9863116487 Hartrees.
 NAtoms=    7 NActive=    7 NUniq=    7 SFac= 7.50D-01 NAtFMM=   80 NAOKFM=F Big=F
 One-electron integrals computed using PRISM.
 NBasis=   182 RedAO= T  NBF=   182
 NBsUse=   182 1.00D-06 NBFU=   182
 Initial guess read from the read-write file.
 B after Tr=     0.000000    0.000000    0.000000
         Rot=    1.000000    0.000000    0.000000    0.000000 Ang=   0.00 deg.
 Initial guess orbital symmetries:
       Occupied  (A) (A) (A) (A) (A) (A) (A) (A) (A) (A) (A) (A)
                 (A) (A) (A) (A) (A) (A) (A) (A) (A)
       Virtual   (A) (A) (A) (A) (A) (A) (A) (A) (A) (A) (A) (A)
                 (A) (A) (A) (A) (A) (A) (A) (A) (A) (A) (A) (A)
                 (A) (A) (A) (A) (A) (A) (A) (A) (A) (A) (A) (A)
                 (A) (A) (A) (A) (A) (A) (A) (A) (A) (A) (A) (A)
                 (A) (A) (A) (A) (A) (A) (A) (A) (A) (A) (A) (A)
                 (A) (A) (A) (A) (A) (A) (A) (A) (A) (A) (A) (A)
                 (A) (A) (A) (A) (A) (A) (A) (A) (A) (A) (A) (A)
                 (A) (A) (A) (A) (A) (A) (A) (A) (A) (A) (A) (A)
                 (A) (A) (A) (A) (A) (A) (A) (A) (A) (A) (A) (A)
                 (A) (A) (A) (A) (A) (A) (A) (A) (A) (A) (A) (A)
                 (A) (A) (A) (A) (A) (A) (A) (A) (A) (A) (A) (A)
                 (A) (A) (A) (A) (A) (A) (A) (A) (A) (A) (A) (A)
                 (A) (A) (A) (A) (A) (A) (A) (A) (A) (A) (A) (A)
                 (A) (A) (A) (A) (A)
 Harris functional with IExCor=  205 diagonalized for initial guess.
 ExpMin= 4.38D-02 ExpMax= 1.14D+04 ExpMxC= 1.72D+03 IAcc=2 IRadAn=         0 AccDes= 0.00D+00
 HarFok:  IExCor=  205 AccDes= 0.00D+00 IRadAn=         0 IDoV= 1
 ScaDFX=  1.000000  1.000000  1.000000  1.000000
 FoFCou: FMM=F IPFlag=           0 FMFlag=      100000 FMFlg1=           0
         NFxFlg=           0 DoJE=T BraDBF=F KetDBF=T FulRan=T
         Omega=  0.000000  0.000000  1.000000  0.000000  0.000000 ICntrl=     500 IOpCl=  0
         NMat0=    1 NMatS0=    1 NMatT0=    0 NMatD0=    1 NMtDS0=    0 NMtDT0=    0
         I1Cent=           4 NGrid=           0.
 Petite list used in FoFCou.
 Requested convergence on RMS density matrix=1.00D-08 within 128 cycles.
 Requested convergence on MAX density matrix=1.00D-06.
 Requested convergence on             energy=1.00D-06.
 No special actions if energy rises.
[...]
 Frequencies --   868.8394               967.7766              1165.7627
 Red. masses --     1.6812                10.0892                 1.8926
 Frc consts  --     0.7477                 5.5675                 1.5154
 IR Inten    --   134.6361                 7.1465               115.4913
 Raman Activ --     0.2124                 6.8528                 3.1039
 Depolar (P) --     0.0996                 0.0074                 0.7500
 Depolar (U) --     0.1812                 0.0147                 0.8571
  Atom  AN      X      Y      Z        X      Y      Z        X      Y      Z
     1   6    -0.01   0.00   0.00     0.00   0.00   0.03     0.00  -0.17   0.00
     2   9    -0.05   0.00   0.06     0.09   0.00  -0.32     0.00   0.00   0.00
     3   9     0.03  -0.03   0.01     0.14  -0.30   0.15    -0.05   0.08  -0.04
     4   9     0.02   0.03   0.01     0.14   0.30   0.15     0.05   0.08   0.04
     5   7     0.06   0.00  -0.19    -0.43   0.00   0.01     0.00  -0.11   0.00
     6   1    -0.32   0.14   0.60    -0.47   0.00   0.01     0.65   0.15  -0.15
     7   1    -0.32  -0.14   0.60    -0.47   0.00   0.01    -0.65   0.15   0.15
                    10                     11                     12
                     A                      A                      A
 Frequencies --  1293.3017              1461.0126              1503.5776
 Red. masses --    10.1189                 7.5448                 2.9616
 Frc consts  --     9.9721                 9.4887                 3.9449
 IR Inten    --   471.6225               346.8405               247.7816
 Raman Activ --     2.0978                 1.0183                 0.5767
 Depolar (P) --     0.7340                 0.4770                 0.7500
 Depolar (U) --     0.8466                 0.6459                 0.8571
  Atom  AN      X      Y      Z        X      Y      Z        X      Y      Z
     1   6    -0.20   0.00   0.78     0.67   0.00   0.18     0.00   0.38   0.00
     2   9     0.09   0.00  -0.26    -0.05   0.00   0.01     0.00  -0.02   0.00
     3   9    -0.02   0.07  -0.09    -0.08   0.08  -0.06     0.02  -0.07   0.03
     4   9    -0.02  -0.07  -0.09    -0.08  -0.08  -0.06    -0.02  -0.07  -0.03
     5   7     0.07   0.00  -0.10    -0.22   0.00  -0.03     0.00  -0.12   0.00
     6   1     0.20   0.18   0.22    -0.46  -0.07   0.07     0.62   0.14  -0.14
     7   1     0.20  -0.18   0.22    -0.45   0.07   0.07    -0.62   0.14   0.14
                    13                     14                     15
                     A                      A                      A
 Frequencies --  1785.5632              3757.9768              3849.2310
 Red. masses --     1.1491                 1.0493                 1.0970
 Frc consts  --     2.1585                 8.7310                 9.5769
 IR Inten    --    92.4413                27.5115                40.2747
 Raman Activ --     1.6443                76.0358                31.8721
 Depolar (P) --     0.6663                 0.0831                 0.7500
 Depolar (U) --     0.7997                 0.1535                 0.8571
  Atom  AN      X      Y      Z        X      Y      Z        X      Y      Z
     1   6    -0.03   0.00   0.03     0.00   0.00   0.00     0.00   0.00   0.00
     2   9     0.00   0.00   0.00     0.00   0.00   0.00     0.00   0.00   0.00
     3   9     0.00   0.00   0.00     0.00   0.00   0.00     0.00   0.00   0.00
     4   9     0.00   0.00   0.00     0.00   0.00   0.00     0.00   0.00   0.00
     5   7     0.09   0.00   0.01     0.04   0.00   0.03     0.00   0.08   0.00
     6   1    -0.53  -0.41  -0.22    -0.29   0.59  -0.25     0.30  -0.58   0.27
     7   1    -0.53   0.41  -0.22    -0.29  -0.59  -0.26    -0.29  -0.58  -0.27

 -------------------
 - Thermochemistry -
 -------------------
 Temperature   298.150 Kelvin.  Pressure   1.00000 Atm.
 Atom     1 has atomic number  6 and mass  12.00000
 Atom     2 has atomic number  9 and mass  18.99840
 Atom     3 has atomic number  9 and mass  18.99840
 Atom     4 has atomic number  9 and mass  18.99840
 Atom     5 has atomic number  7 and mass  14.00307
 Atom     6 has atomic number  1 and mass   1.00783
 Atom     7 has atomic number  1 and mass   1.00783
 Molecular mass:    85.01393 amu.
 Principal axes and moments of inertia in atomic units:
                           1         2         3
     Eigenvalues --   309.87441 317.75392 325.49340
           X            0.98187   0.00200   0.18956
           Y           -0.00251   0.99999   0.00246
           Z           -0.18956  -0.00289   0.98187
 This molecule is an asymmetric top.
 Rotational symmetry number  1.
 Rotational temperatures (Kelvin)      0.27951     0.27258     0.26610
 Rotational constants (GHZ):           5.82411     5.67968     5.54463
 Zero-point vibrational energy     118149.6 (Joules/Mol)
                                   28.23843 (Kcal/Mol)
 Warning -- explicit consideration of   3 degrees of freedom as
           vibrations may cause significant error
 Vibrational temperatures:    346.09   622.43   702.53   895.86   905.02
          (Kelvin)            988.32  1250.06  1392.41  1677.27  1860.77
                             2102.07  2163.31  2569.02  5406.88  5538.18
 
 Zero-point correction=                           0.045001 (Hartree/Particle)
 Thermal correction to Energy=                    0.049401
 Thermal correction to Enthalpy=                  0.050345
 Thermal correction to Gibbs Free Energy=         0.017536
 Sum of electronic and zero-point Energies=           -391.915408
 Sum of electronic and thermal Energies=              -391.911008
 Sum of electronic and thermal Enthalpies=            -391.910064
 Sum of electronic and thermal Free Energies=         -391.942873
 
                     E (Thermal)             CV                S
                      KCal/Mol        Cal/Mol-Kelvin    Cal/Mol-Kelvin
 Total                   31.000             14.749             69.052
 Electronic               0.000              0.000              0.000
 Translational            0.889              2.981             39.234
 Rotational               0.889              2.981             24.975
 Vibrational             29.222              8.787              4.843
 Vibration     1          0.658              1.778              1.799
 Vibration     2          0.794              1.399              0.850
 Vibration     3          0.844              1.276              0.688
                       Q            Log10(Q)             Ln(Q)
 Total Bot       0.858793D-08         -8.066111        -18.572908
 Total V=0       0.429317D+13         12.632778         29.088046
 Vib (Bot)       0.434953D-20        -20.361558        -46.884219
 Vib (Bot)    1  0.814949D+00         -0.088870         -0.204630
 Vib (Bot)    2  0.401938D+00         -0.395841         -0.911458
 Vib (Bot)    3  0.340079D+00         -0.468420         -1.078578
 Vib (V=0)       0.217436D+01          0.337332          0.776735
 Vib (V=0)    1  0.145611D+01          0.163193          0.375767
 Vib (V=0)    2  0.114152D+01          0.057485          0.132365
 Vib (V=0)    3  0.110469D+01          0.043242          0.099567
 Electronic      0.100000D+01          0.000000          0.000000
 Translational   0.308099D+08          7.488690         17.243347
 Rotational      0.640849D+05          4.806756         11.067964
 ***** Axes restored to original set *****
 -------------------------------------------------------------------
 Center     Atomic                   Forces (Hartrees/Bohr)
 Number     Number              X              Y              Z
 -------------------------------------------------------------------
      1        6           0.000227890   -0.000007789    0.000256151
      2        9          -0.000047095    0.000120170    0.000099482
      3        9          -0.000042244   -0.000009371   -0.000203701
      4        9           0.000071944   -0.000147690   -0.000019576
      5        7          -0.000121177    0.000083550   -0.000127095
      6        1          -0.000020825   -0.000104488    0.000019027
      7        1          -0.000068493    0.000065617   -0.000024288
 -------------------------------------------------------------------
 Cartesian Forces:  Max     0.000256151 RMS     0.000114230

 GradGradGradGradGradGradGradGradGradGradGradGradGradGradGradGradGradGrad
 Berny optimization.
 Internal  Forces:  Max     0.000191517 RMS     0.000099627
 Search for a local minimum.
 Step number   1 out of a maximum of    2
 All quantities printed in internal units (Hartrees-Bohrs-Radians)
 Second derivative matrix not updated -- analytic derivatives used.
     Eigenvalues ---    0.00244   0.02425   0.14716   0.15890   0.16740
     Eigenvalues ---    0.18806   0.29226   0.32657   0.32898   0.45748
     Eigenvalues ---    0.48933   0.51755   0.51962   0.54681   0.66088
     Eigenvalues --- 1000.000001000.000001000.000001000.000001000.00000
     Eigenvalues --- 1000.00000
 Angle between quadratic step and forces=  56.78 degrees.
 Linear search not attempted -- first point.
 Iteration  1 RMS(Cart)=  0.00053609 RMS(Int)=  0.00000028
 Iteration  2 RMS(Cart)=  0.00000027 RMS(Int)=  0.00000009
 Variable       Old X    -DE/DX   Delta X   Delta X   Delta X     New X
                                 (Linear)    (Quad)   (Total)
    R1        2.50537  -0.00014   0.00000  -0.00011  -0.00011   2.50526
    R2        2.47501  -0.00004   0.00000  -0.00009  -0.00009   2.47493
    R3        2.47493   0.00010   0.00000   0.00000   0.00000   2.47493
    R4        2.63124   0.00019   0.00000   0.00035   0.00035   2.63160
    R5        1.88613   0.00010   0.00000   0.00017   0.00017   1.88630
    R6        1.88620   0.00009   0.00000   0.00011   0.00011   1.88630
    A1        1.85819  -0.00011   0.00000  -0.00052  -0.00052   1.85767
    A2        1.85782  -0.00005   0.00000  -0.00015  -0.00015   1.85767
    A3        1.99489  -0.00008   0.00000  -0.00035  -0.00035   1.99453
    A4        1.89947   0.00012   0.00000   0.00074   0.00074   1.90020
    A5        1.92513  -0.00001   0.00000  -0.00012  -0.00012   1.92501
    A6        1.92457   0.00013   0.00000   0.00044   0.00044   1.92501
    A7        1.94859  -0.00003   0.00000   0.00006   0.00006   1.94865
    A8        1.94831   0.00007   0.00000   0.00034   0.00034   1.94865
    A9        1.93682   0.00000   0.00000   0.00044   0.00044   1.93726
    D1        1.09016   0.00008   0.00000  -0.00010  -0.00010   1.09006
    D2       -1.08907   0.00004   0.00000  -0.00099  -0.00099  -1.09006
    D3       -3.10021  -0.00013   0.00000  -0.00110  -0.00110  -3.10132
    D4        1.00374  -0.00016   0.00000  -0.00200  -0.00200   1.00174
    D5       -1.00176   0.00010   0.00000   0.00002   0.00002  -1.00174
    D6        3.10219   0.00006   0.00000  -0.00088  -0.00088   3.10132
         Item               Value     Threshold  Converged?
 Maximum Force            0.000192     0.000450     YES
 RMS     Force            0.000100     0.000300     YES
 Maximum Displacement     0.001180     0.001800     YES
 RMS     Displacement     0.000536     0.001200     YES
 Predicted change in Energy=-3.677263D-07
 Optimization completed.
    -- Stationary point found.
                           ----------------------------
                           !   Optimized Parameters   !
                           ! (Angstroms and Degrees)  !
 --------------------------                            --------------------------
 ! Name  Definition              Value          Derivative Info.                !
 --------------------------------------------------------------------------------
 ! R1    R(1,2)                  1.3258         -DE/DX =   -0.0001              !
 ! R2    R(1,3)                  1.3097         -DE/DX =    0.0                 !
 ! R3    R(1,4)                  1.3097         -DE/DX =    0.0001              !
 ! R4    R(1,5)                  1.3924         -DE/DX =    0.0002              !
 ! R5    R(5,6)                  0.9981         -DE/DX =    0.0001              !
 ! R6    R(5,7)                  0.9981         -DE/DX =    0.0001              !
 ! A1    A(2,1,3)              106.4665         -DE/DX =   -0.0001              !
 ! A2    A(2,1,4)              106.445          -DE/DX =    0.0                 !
 ! A3    A(2,1,5)              114.2986         -DE/DX =   -0.0001              !
 ! A4    A(3,1,4)              108.8314         -DE/DX =    0.0001              !
 ! A5    A(3,1,5)              110.3016         -DE/DX =    0.0                 !
 ! A6    A(4,1,5)              110.2697         -DE/DX =    0.0001              !
 ! A7    A(1,5,6)              111.6457         -DE/DX =    0.0                 !
 ! A8    A(1,5,7)              111.6297         -DE/DX =    0.0001              !
 ! A9    A(6,5,7)              110.9714         -DE/DX =    0.0                 !
 ! D1    D(2,1,5,6)             62.4616         -DE/DX =    0.0001              !
 ! D2    D(2,1,5,7)            -62.3992         -DE/DX =    0.0                 !
 ! D3    D(3,1,5,6)           -177.629          -DE/DX =   -0.0001              !
 ! D4    D(3,1,5,7)             57.5102         -DE/DX =   -0.0002              !
 ! D5    D(4,1,5,6)            -57.3966         -DE/DX =    0.0001              !
 ! D6    D(4,1,5,7)            177.7426         -DE/DX =    0.0001              !
 --------------------------------------------------------------------------------
 GradGradGradGradGradGradGradGradGradGradGradGradGradGradGradGradGradGrad

 1\1\GINC-C080\Freq\RHF\6-311+G(2df,p)\C1H2F3N1\RMCCULL2HS2\29-May-2015
 \0\\#N Geom=AllCheck Guess=TCheck SCRF=Check GenChk RHF/6-311+G(2df,p)
  Freq\\title\\0,1\C,0.178339895,0.0125128994,0.0490707758\F,0.59289626
 02,-0.449192832,-1.1225392359\F,0.620284715,1.2419817408,0.1410382973\
 F,0.7657810295,-0.7174350621,0.964135066\N,-1.2030755993,-0.0184130959
 ,0.2208207769\H,-1.5568231351,-0.9512854313,0.1923424046\H,-1.66962583
 02,0.561029585,-0.4446445686\\Version=EM64L-G09RevA.02\State=1-A\HF=-3
 91.960409\RMSD=8.133e-10\RMSF=1.142e-04\ZeroPoint=0.0450008\Thermal=0.
 049401\Dipole=-0.9090035,-0.2207073,-0.3636856\DipoleDeriv=2.1233909,-
 0.0044091,-0.0530674,-0.0032833,1.9004339,0.0332294,-0.0505716,0.03342
 36,1.974771,-0.589461,0.0925643,0.2609451,0.0931545,-0.4389926,-0.2036
 797,0.2622542,-0.2034406,-0.8909555,-0.4971925,-0.2580434,-0.0203527,-
 0.2120766,-0.9006685,-0.0461096,0.0034006,-0.0344611,-0.3486926,-0.560
 3656,0.1832203,-0.2387886,0.1685758,-0.5363582,0.2448418,-0.1882168,0.
 2385631,-0.6499226,-0.8978384,0.0051817,0.1058016,0.0082827,-0.4053985
 ,-0.080994,0.1135621,-0.0804074,-0.5827903,0.2062018,0.0249544,-0.0375
 397,0.0029833,0.144678,-0.0098082,-0.0766858,-0.041171,0.2992498,0.215
 2648,-0.0434681,-0.0169983,-0.0576364,0.2363059,0.0625204,-0.0637427,0
 .0874935,0.1983402\Polar=22.2431958,0.0533063,21.5514326,0.0200876,-0.
 2654503,21.0233527\PolarDeriv=1.3165404,0.220331,0.1123403,-0.0444035,
 0.4875407,0.7645816,0.408317,-1.6717898,-1.6989217,-0.0648352,-0.42420
 6,1.5485854,0.124544,-0.0325196,-0.7296653,-2.1129464,1.4450111,0.8204
 622,2.1866065,-0.7097502,0.1589107,-1.9600288,0.2633413,0.8102893,-0.5
 939825,0.7691981,-1.2841923,0.50448,-1.5740432,-0.958316,-1.5914858,0.
 4694038,-0.7198542,1.9075377,-1.2289109,-4.9935893,1.603523,1.6746198,
 0.8235224,0.1562351,0.0222031,-0.0007596,1.0465175,1.6574231,5.4437394
 ,0.1052798,0.2638586,0.4790922,-0.0499973,0.0583066,0.1807092,0.554339
 9,1.4001307,0.3203507,2.1628151,-1.070053,0.4814639,1.4367424,-0.48191
 14,0.6096292,-0.8729823,1.1812254,-2.3390672,-0.6280602,1.6111788,-0.9
 839785,0.8944733,-0.5795331,0.9235038,1.464515,-1.4773568,3.322262,-3.
 282946,0.2829189,0.9280858,1.8424444,-0.823366,-0.4901829,0.5704086,1.
 5553333,3.4050939,-0.7948271,1.3281089,-1.1707573,2.6347122,-0.8001407
 ,2.1869242,0.1944453,-1.4807426,2.351935,-1.6367552,-1.645767,-1.61720
 79,-0.0025956,-0.1485535,-0.3289689,-2.0412393,-2.2438689,-5.5425899,-
 0.1016529,0.0678992,-0.7475196,-0.1530794,-0.0629332,-0.0916187,-0.405
 3173,-0.2244272,0.284432,-2.3497838,1.2477006,-0.8871152,-1.428394,0.6
 807459,-1.3645887,1.482961,-1.2475212,2.0159378,0.9796155,-1.2727963,1
 .8328939,-1.8591669,0.9474162,-1.749999,-1.6025742,1.5662957,-2.105852
 5\HyperPolar=-6.0880104,1.4372336,-15.6335352,-7.6459467,-1.157964,-0.
 145928,-1.0651588,-16.8132529,4.854881,5.8046942\PG=C01 [X(C1H2F3N1)]\
 NImag=0\\0.76494605,0.01332985,0.70482696,0.02348699,-0.03380879,0.633
 55514,-0.12683587,0.02458217,0.06476936,0.12480480,0.02364492,-0.11358
 977,-0.05710558,-0.03840733,0.14154413,0.06251691,-0.05727711,-0.23866
 811,-0.09635679,0.11317198,0.38334770,-0.14244052,-0.08380822,-0.00675
 996,0.01894119,0.00622341,0.00135436,0.14414151,-0.09318432,-0.2975845
 3,-0.01493969,-0.00576678,-0.05940089,-0.04895835,0.12993326,0.4588128
 2,-0.01103048,-0.01545761,-0.09314496,-0.00790365,-0.06959247,-0.02423
 156,0.00522007,0.03173247,0.10092212,-0.16570482,0.06107819,-0.0795959
 9,0.01878525,-0.00183751,-0.00176131,0.01969750,0.00086065,0.00438429,
 0.18051397,0.06461467,-0.16308576,0.08930631,-0.00109750,0.01731807,0.
 00636978,0.01742190,-0.07714964,0.04877907,-0.10519018,0.22010327,-0.0
 8929956,0.08879179,-0.20447123,-0.01930177,0.02500711,-0.10088592,-0.0
 0136696,0.03253131,0.00161172,0.12570989,-0.15913501,0.30354912,-0.301
 46048,0.00395491,0.03792441,-0.04097106,0.00976119,0.03349636,-0.03318
 387,-0.02629739,0.00653257,-0.04572528,0.01970340,-0.01424878,0.706908
 37,-0.01591320,-0.13227747,0.02184450,0.02107915,0.01323558,-0.0124329
 4,-0.07101520,-0.02598828,0.00452189,0.04865141,-0.00158238,0.01345043
 ,0.04566632,0.78579056,-0.00912020,0.01831449,-0.09511948,0.06041504,-
 0.01042423,-0.01864645,0.00324867,0.00293239,0.01131662,-0.04856816,0.
 01227064,-0.00066901,0.13704420,-0.20634394,0.35493501,-0.01105196,-0.
 04948414,-0.00299361,0.00229679,0.00271980,-0.00060914,-0.00994916,-0.
 00468929,0.00038516,0.00241878,0.00266967,0.00078303,-0.12481913,-0.12
 457014,-0.01534608,0.13005921,0.00091446,-0.00033618,-0.00357084,0.001
 92785,0.00006570,-0.00065525,0.00175401,0.00324368,0.00057716,0.000928
 29,0.00068162,0.00029390,-0.14770498,-0.44217361,0.01316508,0.15159544
 ,0.45723220,0.01250016,0.00589362,-0.00308029,-0.00158846,-0.00185257,
 0.00025292,-0.00208069,-0.00136813,0.00360078,-0.00054946,0.00140769,-
 0.00230591,-0.03661925,-0.02872066,-0.02131249,0.01454978,-0.00307465,
 0.02304534,-0.01745241,0.03034724,-0.03683120,0.00297889,-0.00210448,0
 .00135960,0.00279334,-0.00085612,0.00241203,-0.00998539,0.00187803,-0.
 00227585,-0.16074855,0.09610167,-0.12767347,0.01104546,-0.00941507,0.0
 1378792,0.17136866,0.00659364,0.00204674,-0.00172590,-0.00231756,0.000
 82718,-0.00021810,-0.00050917,-0.00193317,-0.00056051,-0.00449086,0.00
 371484,-0.00093952,0.09491655,-0.19700441,0.17008556,0.02175866,-0.018
 71341,0.02771471,-0.11595127,0.21106223,0.01094617,-0.00645638,0.00092
 892,-0.00003372,0.00079576,-0.00116858,0.00038451,-0.00192999,-0.00007
 472,0.00038074,0.00100152,0.00317125,-0.16412951,0.20768072,-0.2305042
 0,0.00323084,-0.00673539,-0.00020035,0.14922097,-0.19435624,0.22784768
 \\-0.00022789,0.00000779,-0.00025615,0.00004710,-0.00012017,-0.0000994
 8,0.00004224,0.00000937,0.00020370,-0.00007194,0.00014769,0.00001958,0
 .00012118,-0.00008355,0.00012710,0.00002083,0.00010449,-0.00001903,0.0
 0006849,-0.00006562,0.00002429\\\@


 A politician is a person who can make waves and then
 make you think he's the only one who can save the ship.
 -- Ivern Ball
 Job cpu time:  0 days  0 hours  7 minutes 52.2 seconds.
 File lengths (MBytes):  RWF=     27 Int=      0 D2E=      0 Chk=      3 Scr=      1
 Normal termination of Gaussian 09 at Fri May 29 11:06:00 2015.
