 Entering Gaussian System, Link 0=g09
 Input=Gas-HF-6-311+G2dfp-Freq-Opt-CF3CH2NH2.inp
 Output=Gas-HF-6-311+G2dfp-Freq-Opt-CF3CH2NH2.log
 Initial command:
 /usr/local/g09/l1.exe /local/gaussian-tmp/3702328/Gau-9949.inp -scrdir=/local/gaussian-tmp/3702328/
 Entering Link 1 = /usr/local/g09/l1.exe PID=      9950.
  
 Copyright (c) 1988,1990,1992,1993,1995,1998,2003,2009, Gaussian, Inc.
                  All Rights Reserved.
  
 This is part of the Gaussian(R) 09 program.  It is based on
 the Gaussian(R) 03 system (copyright 2003, Gaussian, Inc.),
 the Gaussian(R) 98 system (copyright 1998, Gaussian, Inc.),
 the Gaussian(R) 94 system (copyright 1995, Gaussian, Inc.),
 the Gaussian 92(TM) system (copyright 1992, Gaussian, Inc.),
 the Gaussian 90(TM) system (copyright 1990, Gaussian, Inc.),
 the Gaussian 88(TM) system (copyright 1988, Gaussian, Inc.),
 the Gaussian 86(TM) system (copyright 1986, Carnegie Mellon
 University), and the Gaussian 82(TM) system (copyright 1983,
 Carnegie Mellon University). Gaussian is a federally registered
 trademark of Gaussian, Inc.
  
 This software contains proprietary and confidential information,
 including trade secrets, belonging to Gaussian, Inc.
  
 This software is provided under written license and may be
 used, copied, transmitted, or stored only in accord with that
 written license.
  
 The following legend is applicable only to US Government
 contracts under FAR:
  
                    RESTRICTED RIGHTS LEGEND
  
 Use, reproduction and disclosure by the US Government is
 subject to restrictions as set forth in subparagraphs (a)
 and (c) of the Commercial Computer Software - Restricted
 Rights clause in FAR 52.227-19.
  
 Gaussian, Inc.
 340 Quinnipiac St., Bldg. 40, Wallingford CT 06492
  
  
 ---------------------------------------------------------------
 Warning -- This program may not be used in any manner that
 competes with the business of Gaussian, Inc. or will provide
 assistance to any competitor of Gaussian, Inc.  The licensee
 of this program is prohibited from giving any competitor of
 Gaussian, Inc. access to this program.  By using this program,
 the user acknowledges that Gaussian, Inc. is engaged in the
 business of creating and licensing software in the field of
 computational chemistry and represents and warrants to the
 licensee that it is not a competitor of Gaussian, Inc. and that
 it will not use this program in any manner prohibited above.
 ---------------------------------------------------------------
  

 Cite this work as:
 Gaussian 09, Revision A.02,
 M. J. Frisch, G. W. Trucks, H. B. Schlegel, G. E. Scuseria, 
 M. A. Robb, J. R. Cheeseman, G. Scalmani, V. Barone, B. Mennucci, 
 G. A. Petersson, H. Nakatsuji, M. Caricato, X. Li, H. P. Hratchian, 
 A. F. Izmaylov, J. Bloino, G. Zheng, J. L. Sonnenberg, M. Hada, 
 M. Ehara, K. Toyota, R. Fukuda, J. Hasegawa, M. Ishida, T. Nakajima, 
 Y. Honda, O. Kitao, H. Nakai, T. Vreven, J. A. Montgomery, Jr., 
 J. E. Peralta, F. Ogliaro, M. Bearpark, J. J. Heyd, E. Brothers, 
 K. N. Kudin, V. N. Staroverov, R. Kobayashi, J. Normand, 
 K. Raghavachari, A. Rendell, J. C. Burant, S. S. Iyengar, J. Tomasi, 
 M. Cossi, N. Rega, J. M. Millam, M. Klene, J. E. Knox, J. B. Cross, 
 V. Bakken, C. Adamo, J. Jaramillo, R. Gomperts, R. E. Stratmann, 
 O. Yazyev, A. J. Austin, R. Cammi, C. Pomelli, J. W. Ochterski, 
 R. L. Martin, K. Morokuma, V. G. Zakrzewski, G. A. Voth, 
 P. Salvador, J. J. Dannenberg, S. Dapprich, A. D. Daniels, 
 O. Farkas, J. B. Foresman, J. V. Ortiz, J. Cioslowski, 
 and D. J. Fox, Gaussian, Inc., Wallingford CT, 2009.
 
 ******************************************
 Gaussian 09:  EM64L-G09RevA.02 11-Jun-2009
                29-May-2015 
 ******************************************
 %chk=fsadshiyte
 %mem=10GB
 %nproc=8
 Will use up to    8 processors via shared memory.
 ----------------------------
 # HF/6-311+G(2df,p) Opt Freq
 ----------------------------
 1/18=20,19=15,38=1/1,3;
 2/9=110,12=2,17=6,18=5,40=1/2;
 3/5=4,6=6,7=114,11=9,16=1,25=1,30=1,71=1/1,2,3;
 4//1;
 5/5=2,38=5/2;
 6/7=2,8=2,9=2,10=2,28=1/1;
 7//1,2,3,16;
 1/18=20,19=15/3(2);
 2/9=110/2;
 99//99;
 2/9=110/2;
 3/5=4,6=6,7=114,11=9,16=1,25=1,30=1,71=1/1,2,3;
 4/5=5,16=3/1;
 5/5=2,38=5/2;
 7//1,2,3,16;
 1/18=20,19=15/3(-5);
 2/9=110/2;
 6/7=2,8=2,9=2,10=2,19=2,28=1/1;
 99/9=1/99;
 -----
 title
 -----
 Symbolic Z-matrix:
 Charge =  0 Multiplicity = 1
 6                    -0.79965   0.00445   0.00289 
 9                    -0.90191  -0.43298   1.2338 
 9                    -1.87417   0.72539  -0.24901 
 9                    -0.8357   -1.03906  -0.79685 
 6                     0.43827   0.84009  -0.21594 
 1                     0.40577   1.66699   0.47923 
 1                     0.40255   1.23769  -1.21914 
 7                     1.995    -0.02563   0.0808 
 1                     1.94592  -0.842    -0.96593 
 1                     2.67784   0.07703   0.80412 
 

 GradGradGradGradGradGradGradGradGradGradGradGradGradGradGradGradGradGrad
 Berny optimization.
 Initialization pass.
                           ----------------------------
                           !    Initial Parameters    !
                           ! (Angstroms and Degrees)  !
 --------------------------                            --------------------------
 ! Name  Definition              Value          Derivative Info.                !
 --------------------------------------------------------------------------------
 ! R1    R(1,2)                  1.3103         estimate D2E/DX2                !
 ! R2    R(1,3)                  1.3183         estimate D2E/DX2                !
 ! R3    R(1,4)                  1.3152         estimate D2E/DX2                !
 ! R4    R(1,5)                  1.5095         estimate D2E/DX2                !
 ! R5    R(5,6)                  1.0808         estimate D2E/DX2                !
 ! R6    R(5,7)                  1.0797         estimate D2E/DX2                !
 ! R7    R(5,8)                  1.8058         estimate D2E/DX2                !
 ! R8    R(8,9)                  1.3283         estimate D2E/DX2                !
 ! R9    R(8,10)                 1.0            estimate D2E/DX2                !
 ! A1    A(2,1,3)              107.3656         estimate D2E/DX2                !
 ! A2    A(2,1,4)              107.7103         estimate D2E/DX2                !
 ! A3    A(2,1,5)              112.6434         estimate D2E/DX2                !
 ! A4    A(3,1,4)              107.1798         estimate D2E/DX2                !
 ! A5    A(3,1,5)              109.7551         estimate D2E/DX2                !
 ! A6    A(4,1,5)              111.9344         estimate D2E/DX2                !
 ! A7    A(1,5,6)              107.7966         estimate D2E/DX2                !
 ! A8    A(1,5,7)              108.1454         estimate D2E/DX2                !
 ! A9    A(1,5,8)              114.6925         estimate D2E/DX2                !
 ! A10   A(6,5,7)              108.3547         estimate D2E/DX2                !
 ! A11   A(6,5,8)              106.6793         estimate D2E/DX2                !
 ! A12   A(7,5,8)              110.9615         estimate D2E/DX2                !
 ! A13   A(5,8,9)               97.6598         estimate D2E/DX2                !
 ! A14   A(5,8,10)             131.1701         estimate D2E/DX2                !
 ! A15   A(9,8,10)             131.1701         estimate D2E/DX2                !
 ! D1    D(2,1,5,6)            -57.7565         estimate D2E/DX2                !
 ! D2    D(2,1,5,7)           -174.7078         estimate D2E/DX2                !
 ! D3    D(2,1,5,8)             60.8875         estimate D2E/DX2                !
 ! D4    D(3,1,5,6)             61.8099         estimate D2E/DX2                !
 ! D5    D(3,1,5,7)            -55.1413         estimate D2E/DX2                !
 ! D6    D(3,1,5,8)           -179.546          estimate D2E/DX2                !
 ! D7    D(4,1,5,6)           -179.3115         estimate D2E/DX2                !
 ! D8    D(4,1,5,7)             63.7373         estimate D2E/DX2                !
 ! D9    D(4,1,5,8)            -60.6674         estimate D2E/DX2                !
 ! D10   D(1,5,8,9)             69.7296         estimate D2E/DX2                !
 ! D11   D(1,5,8,10)          -110.2704         estimate D2E/DX2                !
 ! D12   D(6,5,8,9)           -170.9998         estimate D2E/DX2                !
 ! D13   D(6,5,8,10)             9.0002         estimate D2E/DX2                !
 ! D14   D(7,5,8,9)            -53.1725         estimate D2E/DX2                !
 ! D15   D(7,5,8,10)           126.8275         estimate D2E/DX2                !
 --------------------------------------------------------------------------------
 Trust Radius=3.00D-01 FncErr=1.00D-07 GrdErr=1.00D-07
 Number of steps in this run=  49 maximum allowed number of steps= 100.
 GradGradGradGradGradGradGradGradGradGradGradGradGradGradGradGradGradGrad

                          Input orientation:                          
 ---------------------------------------------------------------------
 Center     Atomic      Atomic             Coordinates (Angstroms)
 Number     Number       Type             X           Y           Z
 ---------------------------------------------------------------------
      1          6           0       -0.799648    0.004452    0.002894
      2          9           0       -0.901905   -0.432982    1.233795
      3          9           0       -1.874172    0.725392   -0.249010
      4          9           0       -0.835697   -1.039065   -0.796853
      5          6           0        0.438267    0.840093   -0.215944
      6          1           0        0.405773    1.666985    0.479228
      7          1           0        0.402551    1.237692   -1.219135
      8          7           0        1.995000   -0.025628    0.080797
      9          1           0        1.945918   -0.841995   -0.965933
     10          1           0        2.677838    0.077034    0.804118
 ---------------------------------------------------------------------
                    Distance matrix (angstroms):
                    1          2          3          4          5
     1  C    0.000000
     2  F    1.310314   0.000000
     3  F    1.318261   2.117981   0.000000
     4  F    1.315227   2.120201   2.119403   0.000000
     5  C    1.509510   2.349154   2.315518   2.343432   0.000000
     6  H    2.108068   2.586359   2.571979   3.239188   1.080773
     7  H    2.111757   3.241855   2.527264   2.625872   1.079700
     8  N    2.795895   3.144424   3.955161   3.132119   1.805809
     9  H    3.032034   3.621628   4.190915   2.793708   2.380108
    10  H    3.569332   3.641331   4.717016   4.019168   2.576521
                    6          7          8          9         10
     6  H    0.000000
     7  H    1.751782   0.000000
     8  N    2.355701   2.412819   0.000000
     9  H    3.279561   2.602151   1.328348   0.000000
    10  H    2.792091   3.258467   1.000000   2.124477   0.000000
 Stoichiometry    C2H4F3N
 Framework group  C1[X(C2H4F3N)]
 Deg. of freedom    24
 Full point group                 C1      NOp   1
 Largest Abelian subgroup         C1      NOp   1
 Largest concise Abelian subgroup C1      NOp   1
                         Standard orientation:                         
 ---------------------------------------------------------------------
 Center     Atomic      Atomic             Coordinates (Angstroms)
 Number     Number       Type             X           Y           Z
 ---------------------------------------------------------------------
      1          6           0       -0.494035    0.004921    0.007046
      2          9           0       -0.587247   -0.382696    1.255240
      3          9           0       -1.562136    0.729690   -0.260687
      4          9           0       -0.552989   -1.068470   -0.750699
      5          6           0        0.751815    0.814845   -0.258475
      6          1           0        0.738212    1.668622    0.404058
      7          1           0        0.709273    1.173390   -1.276015
      8          7           0        2.300726   -0.059241    0.054245
      9          1           0        2.228718   -0.915151   -0.959037
     10          1           0        2.993382    0.062513    0.765162
 ---------------------------------------------------------------------
 Rotational constants (GHZ):      5.3968075      2.4912902      2.4730461
 Standard basis: 6-311+G(2df,p) (5D, 7F)
 There are   228 symmetry adapted basis functions of A   symmetry.
 Integral buffers will be    131072 words long.
 Raffenetti 1 integral format.
 Two-electron integral symmetry is turned on.
   228 basis functions,   344 primitive gaussians,   258 cartesian basis functions
    25 alpha electrons       25 beta electrons
       nuclear repulsion energy       267.3909822170 Hartrees.
 NAtoms=   10 NActive=   10 NUniq=   10 SFac= 7.50D-01 NAtFMM=   80 NAOKFM=F Big=F
 One-electron integrals computed using PRISM.
 NBasis=   228 RedAO= T  NBF=   228
 NBsUse=   228 1.00D-06 NBFU=   228
 Harris functional with IExCor=  205 diagonalized for initial guess.
 ExpMin= 4.38D-02 ExpMax= 1.14D+04 ExpMxC= 1.72D+03 IAcc=2 IRadAn=         0 AccDes= 0.00D+00
 HarFok:  IExCor=  205 AccDes= 0.00D+00 IRadAn=         0 IDoV= 1
 ScaDFX=  1.000000  1.000000  1.000000  1.000000
 FoFCou: FMM=F IPFlag=           0 FMFlag=      100000 FMFlg1=           0
         NFxFlg=           0 DoJE=T BraDBF=F KetDBF=T FulRan=T
         Omega=  0.000000  0.000000  1.000000  0.000000  0.000000 ICntrl=     500 IOpCl=  0
         NMat0=    1 NMatS0=    1 NMatT0=    0 NMatD0=    1 NMtDS0=    0 NMtDT0=    0
         I1Cent=           4 NGrid=           0.
 Petite list used in FoFCou.
 Initial guess orbital symmetries:
       Occupied  (A) (A) (A) (A) (A) (A) (A) (A) (A) (A) (A) (A)
                 (A) (A) (A) (A) (A) (A) (A) (A) (A) (A) (A) (A)
                 (A)
       Virtual   (A) (A) (A) (A) (A) (A) (A) (A) (A) (A) (A) (A)
                 (A) (A) (A) (A) (A) (A) (A) (A) (A) (A) (A) (A)
                 (A) (A) (A) (A) (A) (A) (A) (A) (A) (A) (A) (A)
                 (A) (A) (A) (A) (A) (A) (A) (A) (A) (A) (A) (A)
                 (A) (A) (A) (A) (A) (A) (A) (A) (A) (A) (A) (A)
                 (A) (A) (A) (A) (A) (A) (A) (A) (A) (A) (A) (A)
                 (A) (A) (A) (A) (A) (A) (A) (A) (A) (A) (A) (A)
                 (A) (A) (A) (A) (A) (A) (A) (A) (A) (A) (A) (A)
                 (A) (A) (A) (A) (A) (A) (A) (A) (A) (A) (A) (A)
                 (A) (A) (A) (A) (A) (A) (A) (A) (A) (A) (A) (A)
                 (A) (A) (A) (A) (A) (A) (A) (A) (A) (A) (A) (A)
                 (A) (A) (A) (A) (A) (A) (A) (A) (A) (A) (A) (A)
                 (A) (A) (A) (A) (A) (A) (A) (A) (A) (A) (A) (A)
                 (A) (A) (A) (A) (A) (A) (A) (A) (A) (A) (A) (A)
                 (A) (A) (A) (A) (A) (A) (A) (A) (A) (A) (A) (A)
                 (A) (A) (A) (A) (A) (A) (A) (A) (A) (A) (A) (A)
                 (A) (A) (A) (A) (A) (A) (A) (A) (A) (A) (A)
 The electronic state of the initial guess is 1-A.
 Requested convergence on RMS density matrix=1.00D-08 within 128 cycles.
 Requested convergence on MAX density matrix=1.00D-06.
 Requested convergence on             energy=1.00D-06.
 No special actions if energy rises.
 Keep R1 ints in memory in canonical form, NReq=567072802.
 SCF Done:  E(RHF) =  -430.856851594     A.U. after   14 cycles
             Convg  =    0.2624D-08             -V/T =  2.0020

 **********************************************************************

            Population analysis using the SCF density.

 **********************************************************************

 Orbital symmetries:
       Occupied  (A) (A) (A) (A) (A) (A) (A) (A) (A) (A) (A) (A)
                 (A) (A) (A) (A) (A) (A) (A) (A) (A) (A) (A) (A)
                 (A)
       Virtual   (A) (A) (A) (A) (A) (A) (A) (A) (A) (A) (A) (A)
                 (A) (A) (A) (A) (A) (A) (A) (A) (A) (A) (A) (A)
                 (A) (A) (A) (A) (A) (A) (A) (A) (A) (A) (A) (A)
                 (A) (A) (A) (A) (A) (A) (A) (A) (A) (A) (A) (A)
                 (A) (A) (A) (A) (A) (A) (A) (A) (A) (A) (A) (A)
                 (A) (A) (A) (A) (A) (A) (A) (A) (A) (A) (A) (A)
                 (A) (A) (A) (A) (A) (A) (A) (A) (A) (A) (A) (A)
                 (A) (A) (A) (A) (A) (A) (A) (A) (A) (A) (A) (A)
                 (A) (A) (A) (A) (A) (A) (A) (A) (A) (A) (A) (A)
                 (A) (A) (A) (A) (A) (A) (A) (A) (A) (A) (A) (A)
                 (A) (A) (A) (A) (A) (A) (A) (A) (A) (A) (A) (A)
                 (A) (A) (A) (A) (A) (A) (A) (A) (A) (A) (A) (A)
                 (A) (A) (A) (A) (A) (A) (A) (A) (A) (A) (A) (A)
                 (A) (A) (A) (A) (A) (A) (A) (A) (A) (A) (A) (A)
                 (A) (A) (A) (A) (A) (A) (A) (A) (A) (A) (A) (A)
                 (A) (A) (A) (A) (A) (A) (A) (A) (A) (A) (A) (A)
                 (A) (A) (A) (A) (A) (A) (A) (A) (A) (A) (A)
 The electronic state is 1-A.
 Alpha  occ. eigenvalues --  -26.34551 -26.34044 -26.33713 -15.58645 -11.50263
 Alpha  occ. eigenvalues --  -11.31803  -1.75183  -1.64740  -1.64440  -1.10315
 Alpha  occ. eigenvalues --   -1.02939  -0.92686  -0.84047  -0.83801  -0.78476
 Alpha  occ. eigenvalues --   -0.72082  -0.71901  -0.67451  -0.67080  -0.65115
 Alpha  occ. eigenvalues --   -0.63166  -0.59479  -0.57503  -0.47802  -0.39137
 Alpha virt. eigenvalues --    0.06474   0.07871   0.09708   0.10268   0.12840
 Alpha virt. eigenvalues --    0.13049   0.14034   0.16094   0.17740   0.18914
 Alpha virt. eigenvalues --    0.20830   0.22093   0.24760   0.28141   0.30432
 Alpha virt. eigenvalues --    0.32358   0.33209   0.34788   0.36591   0.37930
 Alpha virt. eigenvalues --    0.39386   0.39991   0.40984   0.41924   0.42541
 Alpha virt. eigenvalues --    0.42899   0.44339   0.46344   0.47118   0.50344
 Alpha virt. eigenvalues --    0.51427   0.53017   0.57022   0.58952   0.64269
 Alpha virt. eigenvalues --    0.65566   0.72805   0.75655   0.77872   0.81592
 Alpha virt. eigenvalues --    0.82317   0.82407   0.86142   0.95265   0.98581
 Alpha virt. eigenvalues --    0.98829   1.01995   1.05715   1.06824   1.12687
 Alpha virt. eigenvalues --    1.14553   1.17990   1.19875   1.31629   1.33059
 Alpha virt. eigenvalues --    1.35635   1.38862   1.42134   1.44200   1.48524
 Alpha virt. eigenvalues --    1.49911   1.52556   1.55215   1.57567   1.59472
 Alpha virt. eigenvalues --    1.61511   1.64593   1.65757   1.67017   1.73808
 Alpha virt. eigenvalues --    1.76344   1.78581   1.84503   1.89180   1.94537
 Alpha virt. eigenvalues --    1.96058   2.10041   2.12216   2.12500   2.21112
 Alpha virt. eigenvalues --    2.21762   2.25340   2.29123   2.30034   2.32468
 Alpha virt. eigenvalues --    2.34206   2.39339   2.40863   2.42393   2.44687
 Alpha virt. eigenvalues --    2.47046   2.48932   2.56872   2.60020   2.65842
 Alpha virt. eigenvalues --    2.73608   2.75021   2.79862   2.86579   2.91414
 Alpha virt. eigenvalues --    2.93343   2.95561   2.99438   3.01528   3.05229
 Alpha virt. eigenvalues --    3.06843   3.11560   3.30419   3.40561   3.48118
 Alpha virt. eigenvalues --    3.54193   3.58446   3.65828   3.67764   3.70574
 Alpha virt. eigenvalues --    3.71533   3.73982   3.75132   3.82798   3.83675
 Alpha virt. eigenvalues --    3.85690   3.86808   3.88397   4.03305   4.06665
 Alpha virt. eigenvalues --    4.09962   4.11072   4.14927   4.18920   4.24655
 Alpha virt. eigenvalues --    4.28895   4.30180   4.33220   4.37859   4.41852
 Alpha virt. eigenvalues --    4.54600   4.55918   4.59808   4.61923   4.68959
 Alpha virt. eigenvalues --    4.69723   4.73243   4.91144   5.13030   5.16115
 Alpha virt. eigenvalues --    5.33053   5.41041   5.51234   5.55051   5.67395
 Alpha virt. eigenvalues --    5.81131   6.03384   6.93121   6.94039   6.94666
 Alpha virt. eigenvalues --    7.00822   7.02025   7.04182   7.10325   7.10893
 Alpha virt. eigenvalues --    7.11166   7.11649   7.11807   7.13677   7.14769
 Alpha virt. eigenvalues --    7.14961   7.15111   7.24868   7.25703   7.26175
 Alpha virt. eigenvalues --    7.36268   7.37155   7.37363   7.59086   7.59629
 Alpha virt. eigenvalues --    7.62079   7.81259   7.84294   7.87261   7.98555
 Alpha virt. eigenvalues --    8.45092   8.46604   9.68627   9.69241   9.70906
 Alpha virt. eigenvalues --    9.81687   9.82315   9.85385  10.04420  10.13366
 Alpha virt. eigenvalues --   10.13794  10.24811  10.38253  10.54757  10.57206
 Alpha virt. eigenvalues --   10.74805  10.76540  25.33859  25.80421  36.95501
 Alpha virt. eigenvalues --   68.81906  68.82448  68.85750
          Condensed to atoms (all electrons):
              1          2          3          4          5          6
     1  C    4.517772   0.199806   0.222733   0.201585   0.307628  -0.054024
     2  F    0.199806   9.081780   0.021074   0.024539  -0.069370  -0.002337
     3  F    0.222733   0.021074   9.100326   0.022011  -0.094368   0.002837
     4  F    0.201585   0.024539   0.022011   9.097597  -0.077794   0.004661
     5  C    0.307628  -0.069370  -0.094368  -0.077794   4.972883   0.431409
     6  H   -0.054024  -0.002337   0.002837   0.004661   0.431409   0.483657
     7  H   -0.069455   0.004827   0.004553   0.000109   0.438286  -0.023700
     8  N   -0.038656   0.005652   0.003010   0.010585   0.258320  -0.024692
     9  H   -0.008350  -0.000112  -0.000322  -0.000145  -0.026950   0.002346
    10  H   -0.000363  -0.000288  -0.000087   0.000223  -0.013390  -0.000183
              7          8          9         10
     1  C   -0.069455  -0.038656  -0.008350  -0.000363
     2  F    0.004827   0.005652  -0.000112  -0.000288
     3  F    0.004553   0.003010  -0.000322  -0.000087
     4  F    0.000109   0.010585  -0.000145   0.000223
     5  C    0.438286   0.258320  -0.026950  -0.013390
     6  H   -0.023700  -0.024692   0.002346  -0.000183
     7  H    0.486492  -0.022739  -0.000953   0.000570
     8  N   -0.022739   6.848796   0.323858   0.363004
     9  H   -0.000953   0.323858   0.443916  -0.012605
    10  H    0.000570   0.363004  -0.012605   0.341297
 Mulliken atomic charges:
              1
     1  C    0.721325
     2  F   -0.265570
     3  F   -0.281768
     4  F   -0.283370
     5  C   -0.126654
     6  H    0.180025
     7  H    0.182010
     8  N   -0.727137
     9  H    0.279317
    10  H    0.321822
 Sum of Mulliken atomic charges =   0.00000
 Mulliken charges with hydrogens summed into heavy atoms:
              1
     1  C    0.721325
     2  F   -0.265570
     3  F   -0.281768
     4  F   -0.283370
     5  C    0.235382
     8  N   -0.125998
 Sum of Mulliken charges with hydrogens summed into heavy atoms =   0.00000
 Electronic spatial extent (au):  <R**2>=            552.7173
 Charge=              0.0000 electrons
 Dipole moment (field-independent basis, Debye):
    X=              1.2922    Y=              1.2813    Z=             -0.6877  Tot=              1.9454
 Quadrupole moment (field-independent basis, Debye-Ang):
   XX=            -35.1055   YY=            -33.2598   ZZ=            -32.9584
   XY=             -0.3059   XZ=              0.9206   YZ=              1.4803
 Traceless Quadrupole moment (field-independent basis, Debye-Ang):
   XX=             -1.3309   YY=              0.5148   ZZ=              0.8162
   XY=             -0.3059   XZ=              0.9206   YZ=              1.4803
 Octapole moment (field-independent basis, Debye-Ang**2):
  XXX=            -11.8852  YYY=             -2.0477  ZZZ=             -1.3941  XYY=             -4.0981
  XXY=             -7.2265  XXZ=              9.0445  XZZ=             -0.7080  YZZ=             -0.2197
  YYZ=              0.1641  XYZ=              4.2075
 Hexadecapole moment (field-independent basis, Debye-Ang**3):
 XXXX=           -371.1499 YYYY=           -119.7919 ZZZZ=           -104.5833 XXXY=            -11.7453
 XXXZ=             33.9830 YYYX=             -1.8497 YYYZ=              3.7149 ZZZX=              2.0326
 ZZZY=              1.8960 XXYY=            -87.7561 XXZZ=            -72.8745 YYZZ=            -35.5846
 XXYZ=             10.9073 YYXZ=             -2.7951 ZZXY=             -2.8926
 N-N= 2.673909822170D+02 E-N=-1.558284600534D+03  KE= 4.299961170545D+02
 Calling FoFJK, ICntrl=      2127 FMM=F ISym2X=0 I1Cent= 0 IOpClX= 0 NMat=1 NMatS=1 NMatT=0.
 ***** Axes restored to original set *****
 -------------------------------------------------------------------
 Center     Atomic                   Forces (Hartrees/Bohr)
 Number     Number              X              Y              Z
 -------------------------------------------------------------------
      1        6           0.011474031   -0.013053551    0.006035291
      2        9          -0.000374234    0.000694664   -0.000903421
      3        9           0.003844467    0.002128651   -0.001014893
      4        9          -0.000138451   -0.000170961   -0.000736340
      5        6           0.076053058   -0.019195671    0.037132918
      6        1           0.002679104   -0.002290537    0.000326648
      7        1           0.012446629   -0.007174401   -0.001287306
      8        7          -0.124645095   -0.031941227   -0.147657953
      9        1           0.026657178    0.072555776    0.113597144
     10        1          -0.007996687   -0.001552744   -0.005492089
 -------------------------------------------------------------------
 Cartesian Forces:  Max     0.147657953 RMS     0.046707640

 GradGradGradGradGradGradGradGradGradGradGradGradGradGradGradGradGradGrad
 Berny optimization.
 Internal  Forces:  Max     0.135089674 RMS     0.030237196
 Search for a local minimum.
 Step number   1 out of a maximum of   49
 All quantities printed in internal units (Hartrees-Bohrs-Radians)
 Mixed Optimization -- RFO/linear search
 Second derivative matrix not updated -- first step.
     Eigenvalues ---    0.00230   0.00230   0.00640   0.03955   0.05527
     Eigenvalues ---    0.08290   0.08796   0.09513   0.12993   0.13753
     Eigenvalues ---    0.16000   0.16000   0.17249   0.22058   0.25000
     Eigenvalues ---    0.25000   0.25000   0.31400   0.35901   0.36031
     Eigenvalues ---    0.47688   0.62367   0.63136   0.644081000.00000
     Eigenvalues --- 1000.000001000.000001000.000001000.000001000.00000
     Eigenvalues --- 1000.000001000.000001000.000001000.000001000.00000
     Eigenvalues --- 1000.000001000.000001000.000001000.00000
 RFO step:  Lambda=-1.25970906D-01 EMin= 2.30000000D-03
 Linear search not attempted -- first point.
 Maximum step size (   0.300) exceeded in Quadratic search.
    -- Step size scaled by   0.448
 Iteration  1 RMS(Cart)=  0.05700139 RMS(Int)=  0.00148403
 Iteration  2 RMS(Cart)=  0.00205293 RMS(Int)=  0.00009442
 Iteration  3 RMS(Cart)=  0.00000432 RMS(Int)=  0.00009432
 Iteration  4 RMS(Cart)=  0.00000000 RMS(Int)=  0.00009432
 Variable       Old X    -DE/DX   Delta X   Delta X   Delta X     New X
                                 (Linear)    (Quad)   (Total)
    R1        2.47613  -0.00105   0.00000  -0.00061  -0.00061   2.47552
    R2        2.49115  -0.00178   0.00000  -0.00106  -0.00106   2.49009
    R3        2.48542   0.00059   0.00000   0.00035   0.00035   2.48577
    R4        2.85256  -0.00589   0.00000  -0.00600  -0.00600   2.84656
    R5        2.04237  -0.00162   0.00000  -0.00150  -0.00150   2.04087
    R6        2.04034  -0.00186   0.00000  -0.00171  -0.00171   2.03863
    R7        3.41248  -0.11659   0.00000  -0.19829  -0.19829   3.21419
    R8        2.51021  -0.13509   0.00000  -0.20283  -0.20283   2.30738
    R9        1.88973  -0.00959   0.00000  -0.00713  -0.00713   1.88260
    A1        1.87388   0.00256   0.00000   0.00261   0.00261   1.87650
    A2        1.87990   0.00003   0.00000   0.00119   0.00118   1.88108
    A3        1.96600   0.00186   0.00000   0.00263   0.00263   1.96863
    A4        1.87064   0.00245   0.00000   0.00213   0.00212   1.87276
    A5        1.91559  -0.00759   0.00000  -0.00970  -0.00970   1.90588
    A6        1.95362   0.00094   0.00000   0.00137   0.00136   1.95499
    A7        1.88141   0.00621   0.00000   0.01072   0.01065   1.89206
    A8        1.88749   0.01335   0.00000   0.01988   0.01956   1.90705
    A9        2.00176  -0.01979   0.00000  -0.02708  -0.02708   1.97468
   A10        1.89115  -0.00027   0.00000   0.00506   0.00487   1.89601
   A11        1.86190   0.00613   0.00000   0.00771   0.00784   1.86974
   A12        1.93664  -0.00475   0.00000  -0.01441  -0.01431   1.92233
   A13        1.70449   0.04261   0.00000   0.06677   0.06677   1.77125
   A14        2.28935  -0.02223   0.00000  -0.03484  -0.03484   2.25451
   A15        2.28935  -0.02038   0.00000  -0.03194  -0.03194   2.25741
    D1       -1.00804   0.00446   0.00000   0.00968   0.00978  -0.99826
    D2       -3.04923  -0.00555   0.00000  -0.01244  -0.01257  -3.06180
    D3        1.06269   0.00433   0.00000   0.01020   0.01025   1.07293
    D4        1.07879   0.00371   0.00000   0.00806   0.00815   1.08694
    D5       -0.96240  -0.00630   0.00000  -0.01406  -0.01420  -0.97659
    D6       -3.13367   0.00358   0.00000   0.00858   0.00862  -3.12505
    D7       -3.12958   0.00237   0.00000   0.00520   0.00530  -3.12428
    D8        1.11243  -0.00764   0.00000  -0.01691  -0.01705   1.09537
    D9       -1.05885   0.00224   0.00000   0.00572   0.00576  -1.05308
   D10        1.21701  -0.00084   0.00000  -0.00434  -0.00421   1.21280
   D11       -1.92458   0.00055   0.00000   0.00049   0.00063  -1.92395
   D12       -2.98451  -0.00068   0.00000  -0.00182  -0.00180  -2.98631
   D13        0.15708   0.00070   0.00000   0.00302   0.00304   0.16012
   D14       -0.92804   0.00005   0.00000   0.00102   0.00086  -0.92718
   D15        2.21356   0.00143   0.00000   0.00585   0.00569   2.21925
         Item               Value     Threshold  Converged?
 Maximum Force            0.135090     0.000450     NO 
 RMS     Force            0.030237     0.000300     NO 
 Maximum Displacement     0.191689     0.001800     NO 
 RMS     Displacement     0.057617     0.001200     NO 
 Predicted change in Energy=-4.947251D-02
 GradGradGradGradGradGradGradGradGradGradGradGradGradGradGradGradGradGrad

                          Input orientation:                          
 ---------------------------------------------------------------------
 Center     Atomic      Atomic             Coordinates (Angstroms)
 Number     Number       Type             X           Y           Z
 ---------------------------------------------------------------------
      1          6           0       -0.769713   -0.005856    0.005721
      2          9           0       -0.863746   -0.448223    1.235169
      3          9           0       -1.840974    0.722077   -0.236855
      4          9           0       -0.812427   -1.045177   -0.799446
      5          6           0        0.460815    0.833094   -0.220116
      6          1           0        0.445699    1.655844    0.479319
      7          1           0        0.440578    1.232145   -1.222187
      8          7           0        1.908776   -0.020145    0.041379
      9          1           0        1.908515   -0.794558   -0.902632
     10          1           0        2.576400    0.082776    0.773604
 ---------------------------------------------------------------------
                    Distance matrix (angstroms):
                    1          2          3          4          5
     1  C    0.000000
     2  F    1.309990   0.000000
     3  F    1.317699   2.119300   0.000000
     4  F    1.315411   2.121002   2.120756   0.000000
     5  C    1.506333   2.348210   2.304526   2.341938   0.000000
     6  H    2.112527   2.590956   2.571712   3.242474   1.079979
     7  H    2.122547   3.250153   2.537032   2.633424   1.078794
     8  N    2.678764   3.048814   3.832615   3.026983   1.700878
     9  H    2.935994   3.517893   4.099038   2.734407   2.282742
    10  H    3.434235   3.511354   4.576344   3.902680   2.454823
                    6          7          8          9         10
     6  H    0.000000
     7  H    1.753474   0.000000
     8  N    2.267449   2.306606   0.000000
     9  H    3.170818   2.522791   1.221012   0.000000
    10  H    2.664777   3.141013   0.996227   2.006377   0.000000
 Stoichiometry    C2H4F3N
 Framework group  C1[X(C2H4F3N)]
 Deg. of freedom    24
 Full point group                 C1      NOp   1
 Largest Abelian subgroup         C1      NOp   1
 Largest concise Abelian subgroup C1      NOp   1
                         Standard orientation:                         
 ---------------------------------------------------------------------
 Center     Atomic      Atomic             Coordinates (Angstroms)
 Number     Number       Type             X           Y           Z
 ---------------------------------------------------------------------
      1          6           0       -0.474248    0.003475    0.007430
      2          9           0       -0.577999   -0.461404    1.227756
      3          9           0       -1.528982    0.759940   -0.219788
      4          9           0       -0.540314   -1.018166   -0.818519
      5          6           0        0.774718    0.819073   -0.202148
      6          1           0        0.778108    1.627669    0.513754
      7          1           0        0.763288    1.238621   -1.195951
      8          7           0        2.203255   -0.071451    0.041237
      9          1           0        2.185542   -0.826452   -0.918206
     10          1           0        2.873109    0.001706    0.775002
 ---------------------------------------------------------------------
 Rotational constants (GHZ):      5.3992842      2.6101002      2.5873420
 Standard basis: 6-311+G(2df,p) (5D, 7F)
 There are   228 symmetry adapted basis functions of A   symmetry.
 Integral buffers will be    131072 words long.
 Raffenetti 1 integral format.
 Two-electron integral symmetry is turned on.
   228 basis functions,   344 primitive gaussians,   258 cartesian basis functions
    25 alpha electrons       25 beta electrons
       nuclear repulsion energy       270.3549794308 Hartrees.
 NAtoms=   10 NActive=   10 NUniq=   10 SFac= 7.50D-01 NAtFMM=   80 NAOKFM=F Big=F
 One-electron integrals computed using PRISM.
 NBasis=   228 RedAO= T  NBF=   228
 NBsUse=   228 1.00D-06 NBFU=   228
 Initial guess read from the read-write file.
 B after Tr=     0.000000    0.000000    0.000000
         Rot=    1.000000    0.000000    0.000000    0.000000 Ang=   0.00 deg.
 Initial guess orbital symmetries:
       Occupied  (A) (A) (A) (A) (A) (A) (A) (A) (A) (A) (A) (A)
                 (A) (A) (A) (A) (A) (A) (A) (A) (A) (A) (A) (A)
                 (A)
       Virtual   (A) (A) (A) (A) (A) (A) (A) (A) (A) (A) (A) (A)
                 (A) (A) (A) (A) (A) (A) (A) (A) (A) (A) (A) (A)
                 (A) (A) (A) (A) (A) (A) (A) (A) (A) (A) (A) (A)
                 (A) (A) (A) (A) (A) (A) (A) (A) (A) (A) (A) (A)
                 (A) (A) (A) (A) (A) (A) (A) (A) (A) (A) (A) (A)
                 (A) (A) (A) (A) (A) (A) (A) (A) (A) (A) (A) (A)
                 (A) (A) (A) (A) (A) (A) (A) (A) (A) (A) (A) (A)
                 (A) (A) (A) (A) (A) (A) (A) (A) (A) (A) (A) (A)
                 (A) (A) (A) (A) (A) (A) (A) (A) (A) (A) (A) (A)
                 (A) (A) (A) (A) (A) (A) (A) (A) (A) (A) (A) (A)
                 (A) (A) (A) (A) (A) (A) (A) (A) (A) (A) (A) (A)
                 (A) (A) (A) (A) (A) (A) (A) (A) (A) (A) (A) (A)
                 (A) (A) (A) (A) (A) (A) (A) (A) (A) (A) (A) (A)
                 (A) (A) (A) (A) (A) (A) (A) (A) (A) (A) (A) (A)
                 (A) (A) (A) (A) (A) (A) (A) (A) (A) (A) (A) (A)
                 (A) (A) (A) (A) (A) (A) (A) (A) (A) (A) (A) (A)
                 (A) (A) (A) (A) (A) (A) (A) (A) (A) (A) (A)
 Harris functional with IExCor=  205 diagonalized for initial guess.
 ExpMin= 4.38D-02 ExpMax= 1.14D+04 ExpMxC= 1.72D+03 IAcc=2 IRadAn=         0 AccDes= 0.00D+00
 HarFok:  IExCor=  205 AccDes= 0.00D+00 IRadAn=         0 IDoV= 1
 ScaDFX=  1.000000  1.000000  1.000000  1.000000
 FoFCou: FMM=F IPFlag=           0 FMFlag=      100000 FMFlg1=           0
         NFxFlg=           0 DoJE=T BraDBF=F KetDBF=T FulRan=T
         Omega=  0.000000  0.000000  1.000000  0.000000  0.000000 ICntrl=     500 IOpCl=  0
         NMat0=    1 NMatS0=    1 NMatT0=    0 NMatD0=    1 NMtDS0=    0 NMtDT0=    0
         I1Cent=           4 NGrid=           0.
 Petite list used in FoFCou.
 Requested convergence on RMS density matrix=1.00D-08 within 128 cycles.
 Requested convergence on MAX density matrix=1.00D-06.
 Requested convergence on             energy=1.00D-06.
 No special actions if energy rises.
 Keep R1 ints in memory in canonical form, NReq=567072802.
 SCF Done:  E(RHF) =  -430.910898480     A.U. after   12 cycles
             Convg  =    0.3851D-08             -V/T =  2.0017
 Calling FoFJK, ICntrl=      2127 FMM=F ISym2X=0 I1Cent= 0 IOpClX= 0 NMat=1 NMatS=1 NMatT=0.
 ***** Axes restored to original set *****
 -------------------------------------------------------------------
 Center     Atomic                   Forces (Hartrees/Bohr)
 Number     Number              X              Y              Z
 -------------------------------------------------------------------
      1        6           0.008322892   -0.006178796    0.002754737
      2        9          -0.000252288    0.000283228   -0.000714835
      3        9          -0.000115770    0.000942362   -0.000630724
      4        9          -0.000126012   -0.000401652   -0.000246244
      5        6           0.081558981   -0.027068965    0.034795802
      6        1          -0.000045620   -0.001002345    0.000225771
      7        1           0.006308847   -0.005360767   -0.001213059
      8        7          -0.109442930   -0.027708559   -0.132639693
      9        1           0.020884218    0.068079685    0.102710094
     10        1          -0.007092317   -0.001584192   -0.005041849
 -------------------------------------------------------------------
 Cartesian Forces:  Max     0.132639693 RMS     0.042747724

 GradGradGradGradGradGradGradGradGradGradGradGradGradGradGradGradGradGrad
 Berny optimization.
 Using GEDIIS/GDIIS optimizer.
 Internal  Forces:  Max     0.122592244 RMS     0.027222029
 Search for a local minimum.
 Step number   2 out of a maximum of   49
 All quantities printed in internal units (Hartrees-Bohrs-Radians)
 Mixed Optimization -- RFO/linear search
 Update second derivatives using D2CorX and points    1    2
 DE= -5.40D-02 DEPred=-4.95D-02 R= 1.09D+00
 SS=  1.41D+00  RLast= 3.00D-01 DXNew= 5.0454D-01 8.9999D-01
 Trust test= 1.09D+00 RLast= 3.00D-01 DXMaxT set to 5.05D-01
 Use linear search instead of GDIIS.
 Linear search step of   0.600 exceeds DXMaxT=   0.505 but not scaled.
 Quartic linear search produced a step of  2.00000.
 Iteration  1 RMS(Cart)=  0.06868803 RMS(Int)=  0.04734023
 Iteration  2 RMS(Cart)=  0.05854400 RMS(Int)=  0.00289721
 Iteration  3 RMS(Cart)=  0.00262726 RMS(Int)=  0.00056224
 Iteration  4 RMS(Cart)=  0.00000296 RMS(Int)=  0.00056224
 Iteration  5 RMS(Cart)=  0.00000000 RMS(Int)=  0.00056224
 Variable       Old X    -DE/DX   Delta X   Delta X   Delta X     New X
                                 (Linear)    (Quad)   (Total)
    R1        2.47552  -0.00075  -0.00122   0.00000  -0.00122   2.47430
    R2        2.49009   0.00073  -0.00212   0.00000  -0.00212   2.48797
    R3        2.48577   0.00047   0.00069   0.00000   0.00069   2.48646
    R4        2.84656  -0.00324  -0.01201   0.00000  -0.01201   2.83455
    R5        2.04087  -0.00062  -0.00300   0.00000  -0.00300   2.03787
    R6        2.03863  -0.00097  -0.00342   0.00000  -0.00342   2.03520
    R7        3.21419  -0.10626  -0.39658   0.00000  -0.39658   2.81761
    R8        2.30738  -0.12259  -0.40567   0.00000  -0.40567   1.90171
    R9        1.88260  -0.00862  -0.01426   0.00000  -0.01426   1.86833
    A1        1.87650   0.00044   0.00523   0.00000   0.00524   1.88174
    A2        1.88108  -0.00023   0.00236   0.00000   0.00232   1.88340
    A3        1.96863   0.00071   0.00526   0.00000   0.00524   1.97387
    A4        1.87276   0.00035   0.00424   0.00000   0.00421   1.87697
    A5        1.90588  -0.00160  -0.01941   0.00000  -0.01942   1.88646
    A6        1.95499   0.00034   0.00273   0.00000   0.00269   1.95767
    A7        1.89206   0.00292   0.02131   0.00000   0.02084   1.91290
    A8        1.90705   0.00701   0.03912   0.00000   0.03716   1.94421
    A9        1.97468  -0.01279  -0.05417   0.00000  -0.05408   1.92060
   A10        1.89601  -0.00001   0.00973   0.00000   0.00860   1.90462
   A11        1.86974   0.00543   0.01567   0.00000   0.01639   1.88613
   A12        1.92233  -0.00216  -0.02863   0.00000  -0.02801   1.89432
   A13        1.77125   0.03786   0.13354   0.00000   0.13352   1.90477
   A14        2.25451  -0.01963  -0.06968   0.00000  -0.06970   2.18481
   A15        2.25741  -0.01824  -0.06388   0.00000  -0.06390   2.19351
    D1       -0.99826   0.00189   0.01956   0.00000   0.02011  -0.97816
    D2       -3.06180  -0.00373  -0.02515   0.00000  -0.02592  -3.08772
    D3        1.07293   0.00278   0.02049   0.00000   0.02076   1.09369
    D4        1.08694   0.00181   0.01631   0.00000   0.01683   1.10377
    D5       -0.97659  -0.00381  -0.02839   0.00000  -0.02919  -1.00579
    D6       -3.12505   0.00270   0.01724   0.00000   0.01748  -3.10757
    D7       -3.12428   0.00142   0.01059   0.00000   0.01113  -3.11315
    D8        1.09537  -0.00421  -0.03411   0.00000  -0.03490   1.06048
    D9       -1.05308   0.00231   0.01153   0.00000   0.01178  -1.04130
   D10        1.21280  -0.00077  -0.00842   0.00000  -0.00759   1.20521
   D11       -1.92395   0.00046   0.00126   0.00000   0.00208  -1.92187
   D12       -2.98631  -0.00115  -0.00359   0.00000  -0.00347  -2.98978
   D13        0.16012   0.00008   0.00608   0.00000   0.00620   0.16632
   D14       -0.92718   0.00080   0.00171   0.00000   0.00077  -0.92641
   D15        2.21925   0.00203   0.01138   0.00000   0.01044   2.22969
         Item               Value     Threshold  Converged?
 Maximum Force            0.122592     0.000450     NO 
 RMS     Force            0.027222     0.000300     NO 
 Maximum Displacement     0.372370     0.001800     NO 
 RMS     Displacement     0.117927     0.001200     NO 
 Predicted change in Energy=-8.997611D-02
 GradGradGradGradGradGradGradGradGradGradGradGradGradGradGradGradGradGrad

                          Input orientation:                          
 ---------------------------------------------------------------------
 Center     Atomic      Atomic             Coordinates (Angstroms)
 Number     Number       Type             X           Y           Z
 ---------------------------------------------------------------------
      1          6           0       -0.709017   -0.028905    0.010058
      2          9           0       -0.788134   -0.481053    1.236304
      3          9           0       -1.770995    0.716402   -0.213760
      4          9           0       -0.768634   -1.059448   -0.805846
      5          6           0        0.509353    0.812664   -0.229260
      6          1           0        0.531592    1.626405    0.478032
      7          1           0        0.519819    1.213525   -1.228806
      8          7           0        1.741191   -0.004205   -0.033224
      9          1           0        1.809399   -0.681370   -0.774519
     10          1           0        2.379350    0.097962    0.714976
 ---------------------------------------------------------------------
                    Distance matrix (angstroms):
                    1          2          3          4          5
     1  C    0.000000
     2  F    1.309342   0.000000
     3  F    1.316576   2.121933   0.000000
     4  F    1.315779   2.122569   2.123426   0.000000
     5  C    1.499979   2.346286   2.282431   2.338912   0.000000
     6  H    2.120887   2.599622   2.570717   3.248498   1.078392
     7  H    2.142068   3.264829   2.554463   2.646775   1.076983
     8  N    2.450715   2.869943   3.589891   2.830142   1.491017
     9  H    2.717295   3.291005   3.884255   2.605797   2.054158
    10  H    3.170334   3.261901   4.297718   3.682703   2.213430
                    6          7          8          9         10
     6  H    0.000000
     7  H    1.756105   0.000000
     8  N    2.093658   2.098579   0.000000
     9  H    2.920188   2.336669   1.006341   0.000000
    10  H    2.409666   2.912151   0.988680   1.775048   0.000000
 Stoichiometry    C2H4F3N
 Framework group  C1[X(C2H4F3N)]
 Deg. of freedom    24
 Full point group                 C1      NOp   1
 Largest Abelian subgroup         C1      NOp   1
 Largest concise Abelian subgroup C1      NOp   1
                         Standard orientation:                         
 ---------------------------------------------------------------------
 Center     Atomic      Atomic             Coordinates (Angstroms)
 Number     Number       Type             X           Y           Z
 ---------------------------------------------------------------------
      1          6           0       -0.435358    0.001482    0.007950
      2          9           0       -0.566175   -0.575282    1.176115
      3          9           0       -1.453552    0.820430   -0.153227
      4          9           0       -0.526140   -0.930826   -0.916081
      5          6           0        0.828480    0.799811   -0.115827
      6          1           0        0.873849    1.530484    0.675999
      7          1           0        0.882764    1.304811   -1.065522
      8          7           0        2.013413   -0.095979    0.013115
      9          1           0        2.065915   -0.692068   -0.795985
     10          1           0        2.637656   -0.108027    0.779707
 ---------------------------------------------------------------------
 Rotational constants (GHZ):      5.4049897      2.8627643      2.8286193
 Standard basis: 6-311+G(2df,p) (5D, 7F)
 There are   228 symmetry adapted basis functions of A   symmetry.
 Integral buffers will be    131072 words long.
 Raffenetti 1 integral format.
 Two-electron integral symmetry is turned on.
   228 basis functions,   344 primitive gaussians,   258 cartesian basis functions
    25 alpha electrons       25 beta electrons
       nuclear repulsion energy       277.1291450316 Hartrees.
 NAtoms=   10 NActive=   10 NUniq=   10 SFac= 7.50D-01 NAtFMM=   80 NAOKFM=F Big=F
 One-electron integrals computed using PRISM.
 NBasis=   228 RedAO= T  NBF=   228
 NBsUse=   228 1.00D-06 NBFU=   228
 Initial guess read from the read-write file.
 B after Tr=     0.000000    0.000000    0.000000
         Rot=    1.000000    0.000000    0.000000    0.000000 Ang=   0.00 deg.
 Initial guess orbital symmetries:
       Occupied  (A) (A) (A) (A) (A) (A) (A) (A) (A) (A) (A) (A)
                 (A) (A) (A) (A) (A) (A) (A) (A) (A) (A) (A) (A)
                 (A)
       Virtual   (A) (A) (A) (A) (A) (A) (A) (A) (A) (A) (A) (A)
                 (A) (A) (A) (A) (A) (A) (A) (A) (A) (A) (A) (A)
                 (A) (A) (A) (A) (A) (A) (A) (A) (A) (A) (A) (A)
                 (A) (A) (A) (A) (A) (A) (A) (A) (A) (A) (A) (A)
                 (A) (A) (A) (A) (A) (A) (A) (A) (A) (A) (A) (A)
                 (A) (A) (A) (A) (A) (A) (A) (A) (A) (A) (A) (A)
                 (A) (A) (A) (A) (A) (A) (A) (A) (A) (A) (A) (A)
                 (A) (A) (A) (A) (A) (A) (A) (A) (A) (A) (A) (A)
                 (A) (A) (A) (A) (A) (A) (A) (A) (A) (A) (A) (A)
                 (A) (A) (A) (A) (A) (A) (A) (A) (A) (A) (A) (A)
                 (A) (A) (A) (A) (A) (A) (A) (A) (A) (A) (A) (A)
                 (A) (A) (A) (A) (A) (A) (A) (A) (A) (A) (A) (A)
                 (A) (A) (A) (A) (A) (A) (A) (A) (A) (A) (A) (A)
                 (A) (A) (A) (A) (A) (A) (A) (A) (A) (A) (A) (A)
                 (A) (A) (A) (A) (A) (A) (A) (A) (A) (A) (A) (A)
                 (A) (A) (A) (A) (A) (A) (A) (A) (A) (A) (A) (A)
                 (A) (A) (A) (A) (A) (A) (A) (A) (A) (A) (A)
 Harris functional with IExCor=  205 diagonalized for initial guess.
 ExpMin= 4.38D-02 ExpMax= 1.14D+04 ExpMxC= 1.72D+03 IAcc=2 IRadAn=         0 AccDes= 0.00D+00
 HarFok:  IExCor=  205 AccDes= 0.00D+00 IRadAn=         0 IDoV= 1
 ScaDFX=  1.000000  1.000000  1.000000  1.000000
 FoFCou: FMM=F IPFlag=           0 FMFlag=      100000 FMFlg1=           0
         NFxFlg=           0 DoJE=T BraDBF=F KetDBF=T FulRan=T
         Omega=  0.000000  0.000000  1.000000  0.000000  0.000000 ICntrl=     500 IOpCl=  0
         NMat0=    1 NMatS0=    1 NMatT0=    0 NMatD0=    1 NMtDS0=    0 NMtDT0=    0
         I1Cent=           4 NGrid=           0.
 Petite list used in FoFCou.
 Requested convergence on RMS density matrix=1.00D-08 within 128 cycles.
 Requested convergence on MAX density matrix=1.00D-06.
 Requested convergence on             energy=1.00D-06.
 No special actions if energy rises.
 Keep R1 ints in memory in canonical form, NReq=567072802.
 SCF Done:  E(RHF) =  -430.982135891     A.U. after   11 cycles
             Convg  =    0.5588D-08             -V/T =  2.0004
 Calling FoFJK, ICntrl=      2127 FMM=F ISym2X=0 I1Cent= 0 IOpClX= 0 NMat=1 NMatS=1 NMatT=0.
 ***** Axes restored to original set *****
 -------------------------------------------------------------------
 Center     Atomic                   Forces (Hartrees/Bohr)
 Number     Number              X              Y              Z
 -------------------------------------------------------------------
      1        6          -0.003311420    0.010124738   -0.003950328
      2        9           0.000321344   -0.000693217   -0.000252633
      3        9          -0.009506575   -0.001514979    0.000294912
      4        9           0.000307987   -0.000947835    0.000767229
      5        6           0.056506411   -0.022148661    0.023081398
      6        1          -0.005954949    0.002219049    0.000108268
      7        1          -0.008072261    0.000672440   -0.002805777
      8        7          -0.045521101    0.011419464   -0.035783447
      9        1           0.018030533    0.003688755    0.021476426
     10        1          -0.002799968   -0.002819754   -0.002936049
 -------------------------------------------------------------------
 Cartesian Forces:  Max     0.056506411 RMS     0.017186840

 GradGradGradGradGradGradGradGradGradGradGradGradGradGradGradGradGradGrad
 Berny optimization.
 Using GEDIIS/GDIIS optimizer.
 Internal  Forces:  Max     0.034024680 RMS     0.008972220
 Search for a local minimum.
 Step number   3 out of a maximum of   49
 All quantities printed in internal units (Hartrees-Bohrs-Radians)
 Mixed Optimization -- RFO/linear search
 Update second derivatives using D2CorX and points    2    3
 Use linear search instead of GDIIS.
     Eigenvalues ---    0.00230   0.00231   0.00640   0.04458   0.05543
     Eigenvalues ---    0.08195   0.08908   0.09048   0.12490   0.13636
     Eigenvalues ---    0.15165   0.16002   0.21326   0.23816   0.25000
     Eigenvalues ---    0.25000   0.27123   0.31623   0.35908   0.36069
     Eigenvalues ---    0.47637   0.62429   0.63135   0.644081000.00000
     Eigenvalues --- 1000.000001000.000001000.000001000.000001000.00000
     Eigenvalues --- 1000.000001000.000001000.000001000.000001000.00000
     Eigenvalues --- 1000.000001000.000001000.000001000.00000
 RFO step:  Lambda=-1.18486013D-02 EMin= 2.29985647D-03
 Quartic linear search produced a step of  0.16925.
 Iteration  1 RMS(Cart)=  0.05094366 RMS(Int)=  0.00397741
 Iteration  2 RMS(Cart)=  0.00351657 RMS(Int)=  0.00134756
 Iteration  3 RMS(Cart)=  0.00000618 RMS(Int)=  0.00134754
 Iteration  4 RMS(Cart)=  0.00000003 RMS(Int)=  0.00134754
 Variable       Old X    -DE/DX   Delta X   Delta X   Delta X     New X
                                 (Linear)    (Quad)   (Total)
    R1        2.47430  -0.00002  -0.00021   0.00009  -0.00011   2.47418
    R2        2.48797   0.00676  -0.00036   0.01207   0.01171   2.49967
    R3        2.48646   0.00025   0.00012   0.00037   0.00049   2.48695
    R4        2.83455   0.00549  -0.00203   0.02118   0.01915   2.85370
    R5        2.03787   0.00162  -0.00051   0.00531   0.00481   2.04267
    R6        2.03520   0.00278  -0.00058   0.00905   0.00847   2.04367
    R7        2.81761  -0.03402  -0.06712  -0.10215  -0.16927   2.64835
    R8        1.90171  -0.01708  -0.06866   0.03167  -0.03699   1.86472
    R9        1.86833  -0.00432  -0.00241  -0.00789  -0.01031   1.85803
    A1        1.88174  -0.00432   0.00089  -0.01059  -0.00980   1.87194
    A2        1.88340  -0.00055   0.00039  -0.01955  -0.01965   1.86375
    A3        1.97387  -0.00218   0.00089  -0.01563  -0.01505   1.95882
    A4        1.87697  -0.00426   0.00071  -0.00908  -0.00858   1.86839
    A5        1.88646   0.01253  -0.00329   0.06711   0.06366   1.95012
    A6        1.95767  -0.00154   0.00045  -0.01214  -0.01207   1.94560
    A7        1.91290  -0.00501   0.00353  -0.05486  -0.05368   1.85922
    A8        1.94421  -0.00745   0.00629  -0.07834  -0.07454   1.86967
    A9        1.92060   0.00709  -0.00915   0.05724   0.04858   1.96918
   A10        1.90462   0.00159   0.00146  -0.01971  -0.02381   1.88081
   A11        1.88613   0.00179   0.00277   0.03885   0.04240   1.92854
   A12        1.89432   0.00230  -0.00474   0.06081   0.05727   1.95159
   A13        1.90477   0.02756   0.02260   0.13861   0.16110   2.06588
   A14        2.18481  -0.01226  -0.01180  -0.05823  -0.07013   2.11468
   A15        2.19351  -0.01531  -0.01082  -0.08073  -0.09164   2.10186
    D1       -0.97816  -0.00482   0.00340  -0.07139  -0.06597  -1.04413
    D2       -3.08772   0.00137  -0.00439   0.04091   0.03451  -3.05321
    D3        1.09369  -0.00140   0.00351  -0.02264  -0.01882   1.07487
    D4        1.10377  -0.00313   0.00285  -0.04910  -0.04437   1.05941
    D5       -1.00579   0.00306  -0.00494   0.06320   0.05611  -0.94968
    D6       -3.10757   0.00029   0.00296  -0.00035   0.00279  -3.10478
    D7       -3.11315  -0.00128   0.00188  -0.02454  -0.02081  -3.13396
    D8        1.06048   0.00491  -0.00591   0.08776   0.07966   1.14014
    D9       -1.04130   0.00214   0.00199   0.02421   0.02634  -1.01497
   D10        1.20521  -0.00073  -0.00129   0.01400   0.01296   1.21817
   D11       -1.92187   0.00002   0.00035   0.03980   0.04039  -1.88149
   D12       -2.98978  -0.00160  -0.00059   0.00432   0.00399  -2.98579
   D13        0.16632  -0.00085   0.00105   0.03011   0.03141   0.19774
   D14       -0.92641   0.00255   0.00013   0.03592   0.03556  -0.89085
   D15        2.22969   0.00330   0.00177   0.06171   0.06299   2.29268
         Item               Value     Threshold  Converged?
 Maximum Force            0.034025     0.000450     NO 
 RMS     Force            0.008972     0.000300     NO 
 Maximum Displacement     0.189245     0.001800     NO 
 RMS     Displacement     0.050710     0.001200     NO 
 Predicted change in Energy=-1.057958D-02
 GradGradGradGradGradGradGradGradGradGradGradGradGradGradGradGradGradGrad

                          Input orientation:                          
 ---------------------------------------------------------------------
 Center     Atomic      Atomic             Coordinates (Angstroms)
 Number     Number       Type             X           Y           Z
 ---------------------------------------------------------------------
      1          6           0       -0.709365   -0.008699    0.006695
      2          9           0       -0.779525   -0.481078    1.225775
      3          9           0       -1.788758    0.730031   -0.190561
      4          9           0       -0.793960   -1.040301   -0.806076
      5          6           0        0.557663    0.778394   -0.229032
      6          1           0        0.548946    1.594566    0.479635
      7          1           0        0.489101    1.202471   -1.221516
      8          7           0        1.715520    0.004583   -0.072099
      9          1           0        1.909543   -0.690626   -0.744964
     10          1           0        2.304759    0.122636    0.706101
 ---------------------------------------------------------------------
                    Distance matrix (angstroms):
                    1          2          3          4          5
     1  C    0.000000
     2  F    1.309282   0.000000
     3  F    1.322771   2.119278   0.000000
     4  F    1.316038   2.107453   2.121923   0.000000
     5  C    1.510113   2.343246   2.347234   2.338272   0.000000
     6  H    2.092242   2.574851   2.580978   3.224744   1.080935
     7  H    2.100417   3.230012   2.544545   2.617033   1.081465
     8  N    2.426201   2.854049   3.580541   2.815670   1.401444
     9  H    2.808682   3.340481   4.000383   2.726708   2.061987
    10  H    3.096991   3.185489   4.234361   3.638840   2.087303
                    6          7          8          9         10
     6  H    0.000000
     7  H    1.746778   0.000000
     8  N    2.047767   2.064025   0.000000
     9  H    2.927964   2.414244   0.986767   0.000000
    10  H    2.302334   2.859783   0.983226   1.709731   0.000000
 Stoichiometry    C2H4F3N
 Framework group  C1[X(C2H4F3N)]
 Deg. of freedom    24
 Full point group                 C1      NOp   1
 Largest Abelian subgroup         C1      NOp   1
 Largest concise Abelian subgroup C1      NOp   1
                         Standard orientation:                         
 ---------------------------------------------------------------------
 Center     Atomic      Atomic             Coordinates (Angstroms)
 Number     Number       Type             X           Y           Z
 ---------------------------------------------------------------------
      1          6           0       -0.431266    0.015626    0.003419
      2          9           0       -0.566208   -0.524089    1.188626
      3          9           0       -1.468207    0.815232   -0.183947
      4          9           0       -0.533746   -0.960952   -0.872794
      5          6           0        0.877864    0.754106   -0.142416
      6          1           0        0.881087    1.526465    0.613805
      7          1           0        0.864050    1.238868   -1.109050
      8          7           0        1.992976   -0.081830    0.005167
      9          1           0        2.178982   -0.744506   -0.701919
     10          1           0        2.558902   -0.038132    0.808007
 ---------------------------------------------------------------------
 Rotational constants (GHZ):      5.5144885      2.8608943      2.8335820
 Standard basis: 6-311+G(2df,p) (5D, 7F)
 There are   228 symmetry adapted basis functions of A   symmetry.
 Integral buffers will be    131072 words long.
 Raffenetti 1 integral format.
 Two-electron integral symmetry is turned on.
   228 basis functions,   344 primitive gaussians,   258 cartesian basis functions
    25 alpha electrons       25 beta electrons
       nuclear repulsion energy       278.2634613930 Hartrees.
 NAtoms=   10 NActive=   10 NUniq=   10 SFac= 7.50D-01 NAtFMM=   80 NAOKFM=F Big=F
 One-electron integrals computed using PRISM.
 NBasis=   228 RedAO= T  NBF=   228
 NBsUse=   228 1.00D-06 NBFU=   228
 Initial guess read from the read-write file.
 B after Tr=     0.000000    0.000000    0.000000
         Rot=    1.000000    0.000000    0.000000    0.000000 Ang=   0.00 deg.
 Initial guess orbital symmetries:
       Occupied  (A) (A) (A) (A) (A) (A) (A) (A) (A) (A) (A) (A)
                 (A) (A) (A) (A) (A) (A) (A) (A) (A) (A) (A) (A)
                 (A)
       Virtual   (A) (A) (A) (A) (A) (A) (A) (A) (A) (A) (A) (A)
                 (A) (A) (A) (A) (A) (A) (A) (A) (A) (A) (A) (A)
                 (A) (A) (A) (A) (A) (A) (A) (A) (A) (A) (A) (A)
                 (A) (A) (A) (A) (A) (A) (A) (A) (A) (A) (A) (A)
                 (A) (A) (A) (A) (A) (A) (A) (A) (A) (A) (A) (A)
                 (A) (A) (A) (A) (A) (A) (A) (A) (A) (A) (A) (A)
                 (A) (A) (A) (A) (A) (A) (A) (A) (A) (A) (A) (A)
                 (A) (A) (A) (A) (A) (A) (A) (A) (A) (A) (A) (A)
                 (A) (A) (A) (A) (A) (A) (A) (A) (A) (A) (A) (A)
                 (A) (A) (A) (A) (A) (A) (A) (A) (A) (A) (A) (A)
                 (A) (A) (A) (A) (A) (A) (A) (A) (A) (A) (A) (A)
                 (A) (A) (A) (A) (A) (A) (A) (A) (A) (A) (A) (A)
                 (A) (A) (A) (A) (A) (A) (A) (A) (A) (A) (A) (A)
                 (A) (A) (A) (A) (A) (A) (A) (A) (A) (A) (A) (A)
                 (A) (A) (A) (A) (A) (A) (A) (A) (A) (A) (A) (A)
                 (A) (A) (A) (A) (A) (A) (A) (A) (A) (A) (A) (A)
                 (A) (A) (A) (A) (A) (A) (A) (A) (A) (A) (A)
 Harris functional with IExCor=  205 diagonalized for initial guess.
 ExpMin= 4.38D-02 ExpMax= 1.14D+04 ExpMxC= 1.72D+03 IAcc=2 IRadAn=         0 AccDes= 0.00D+00
 HarFok:  IExCor=  205 AccDes= 0.00D+00 IRadAn=         0 IDoV= 1
 ScaDFX=  1.000000  1.000000  1.000000  1.000000
 FoFCou: FMM=F IPFlag=           0 FMFlag=      100000 FMFlg1=           0
         NFxFlg=           0 DoJE=T BraDBF=F KetDBF=T FulRan=T
         Omega=  0.000000  0.000000  1.000000  0.000000  0.000000 ICntrl=     500 IOpCl=  0
         NMat0=    1 NMatS0=    1 NMatT0=    0 NMatD0=    1 NMtDS0=    0 NMtDT0=    0
         I1Cent=           4 NGrid=           0.
 Petite list used in FoFCou.
 Requested convergence on RMS density matrix=1.00D-08 within 128 cycles.
 Requested convergence on MAX density matrix=1.00D-06.
 Requested convergence on             energy=1.00D-06.
 No special actions if energy rises.
 Keep R1 ints in memory in canonical form, NReq=567072802.
 SCF Done:  E(RHF) =  -430.990586319     A.U. after   10 cycles
             Convg  =    0.9368D-08             -V/T =  2.0000
 Calling FoFJK, ICntrl=      2127 FMM=F ISym2X=0 I1Cent= 0 IOpClX= 0 NMat=1 NMatS=1 NMatT=0.
 ***** Axes restored to original set *****
 -------------------------------------------------------------------
 Center     Atomic                   Forces (Hartrees/Bohr)
 Number     Number              X              Y              Z
 -------------------------------------------------------------------
      1        6          -0.006614396   -0.000962852   -0.000939471
      2        9          -0.000149962   -0.000230557    0.006074825
      3        9           0.004492273    0.000279253   -0.000185706
      4        9           0.000129345   -0.001836761   -0.003987469
      5        6          -0.008906731    0.007735984    0.001615715
      6        1           0.000395284    0.001762601   -0.000095544
      7        1          -0.002558643    0.002087615   -0.002691746
      8        7           0.005470330   -0.002509953   -0.004661660
      9        1           0.005465646   -0.002998091    0.002232834
     10        1           0.002276856   -0.003327240    0.002638222
 -------------------------------------------------------------------
 Cartesian Forces:  Max     0.008906731 RMS     0.003698415

 GradGradGradGradGradGradGradGradGradGradGradGradGradGradGradGradGradGrad
 Berny optimization.
 Using GEDIIS/GDIIS optimizer.
 Internal  Forces:  Max     0.015818171 RMS     0.003514642
 Search for a local minimum.
 Step number   4 out of a maximum of   49
 All quantities printed in internal units (Hartrees-Bohrs-Radians)
 Mixed Optimization -- RFO/linear search
 Update second derivatives using D2CorX and points    3    4
 DE= -8.45D-03 DEPred=-1.06D-02 R= 7.99D-01
 SS=  1.41D+00  RLast= 3.43D-01 DXNew= 8.4853D-01 1.0303D+00
 Trust test= 7.99D-01 RLast= 3.43D-01 DXMaxT set to 8.49D-01
 Use linear search instead of GDIIS.
     Eigenvalues ---    0.00229   0.00234   0.00640   0.04147   0.05464
     Eigenvalues ---    0.08366   0.08436   0.08687   0.12481   0.13362
     Eigenvalues ---    0.15941   0.17734   0.21713   0.24938   0.25000
     Eigenvalues ---    0.25848   0.30818   0.33441   0.35907   0.36382
     Eigenvalues ---    0.47913   0.62557   0.63306   0.648341000.00000
     Eigenvalues --- 1000.000001000.000001000.000001000.000001000.00000
     Eigenvalues --- 1000.000001000.000001000.000001000.000001000.00000
     Eigenvalues --- 1000.000001000.000001000.000001000.00000
 RFO step:  Lambda=-2.95042259D-03 EMin= 2.29197061D-03
 Quartic linear search produced a step of -0.05217.
 Iteration  1 RMS(Cart)=  0.04701701 RMS(Int)=  0.01207447
 Iteration  2 RMS(Cart)=  0.00977437 RMS(Int)=  0.00250261
 Iteration  3 RMS(Cart)=  0.00016902 RMS(Int)=  0.00249463
 Iteration  4 RMS(Cart)=  0.00000038 RMS(Int)=  0.00249463
 Variable       Old X    -DE/DX   Delta X   Delta X   Delta X     New X
                                 (Linear)    (Quad)   (Total)
    R1        2.47418   0.00575   0.00001   0.00831   0.00832   2.48250
    R2        2.49967  -0.00348  -0.00061  -0.00299  -0.00360   2.49608
    R3        2.48695   0.00389  -0.00003   0.00586   0.00584   2.49279
    R4        2.85370   0.00338  -0.00100   0.01339   0.01240   2.86610
    R5        2.04267   0.00127  -0.00025   0.00417   0.00392   2.04659
    R6        2.04367   0.00345  -0.00044   0.01043   0.00999   2.05366
    R7        2.64835   0.01582   0.00883   0.05032   0.05915   2.70749
    R8        1.86472   0.00166   0.00193  -0.01876  -0.01683   1.84789
    R9        1.85803   0.00305   0.00054   0.00377   0.00431   1.86233
    A1        1.87194   0.00199   0.00051   0.00084   0.00130   1.87325
    A2        1.86375   0.00238   0.00102   0.01493   0.01597   1.87973
    A3        1.95882  -0.00026   0.00079  -0.00103  -0.00025   1.95856
    A4        1.86839   0.00210   0.00045   0.00093   0.00132   1.86971
    A5        1.95012  -0.00492  -0.00332  -0.01177  -0.01514   1.93498
    A6        1.94560  -0.00079   0.00063  -0.00261  -0.00200   1.94361
    A7        1.85922   0.00009   0.00280  -0.00988  -0.00707   1.85216
    A8        1.86967  -0.00178   0.00389  -0.02459  -0.02075   1.84892
    A9        1.96918   0.00125  -0.00253   0.01457   0.01202   1.98119
   A10        1.88081  -0.00043   0.00124  -0.01322  -0.01193   1.86888
   A11        1.92854  -0.00070  -0.00221   0.00579   0.00358   1.93211
   A12        1.95159   0.00142  -0.00299   0.02386   0.02090   1.97249
   A13        2.06588   0.00618  -0.00840   0.06889   0.05169   2.11756
   A14        2.11468  -0.00047   0.00366  -0.02207  -0.02722   2.08745
   A15        2.10186  -0.00576   0.00478  -0.05624  -0.06064   2.04122
    D1       -1.04413   0.00077   0.00344   0.00059   0.00400  -1.04012
    D2       -3.05321   0.00206  -0.00180   0.03211   0.03028  -3.02293
    D3        1.07487   0.00071   0.00098   0.00994   0.01093   1.08580
    D4        1.05941  -0.00034   0.00231  -0.00740  -0.00511   1.05430
    D5       -0.94968   0.00096  -0.00293   0.02411   0.02117  -0.92850
    D6       -3.10478  -0.00039  -0.00015   0.00194   0.00182  -3.10296
    D7       -3.13396  -0.00155   0.00109  -0.01601  -0.01492   3.13430
    D8        1.14014  -0.00026  -0.00416   0.01551   0.01136   1.15150
    D9       -1.01497  -0.00161  -0.00137  -0.00666  -0.00799  -1.02296
   D10        1.21817  -0.00041  -0.00068  -0.02224  -0.02213   1.19604
   D11       -1.88149   0.00093  -0.00211   0.23620   0.23339  -1.64810
   D12       -2.98579   0.00005  -0.00021  -0.02114  -0.02060  -3.00640
   D13        0.19774   0.00138  -0.00164   0.23730   0.23491   0.43265
   D14       -0.89085  -0.00003  -0.00185  -0.01810  -0.01925  -0.91011
   D15        2.29268   0.00131  -0.00329   0.24034   0.23626   2.52894
         Item               Value     Threshold  Converged?
 Maximum Force            0.015818     0.000450     NO 
 RMS     Force            0.003515     0.000300     NO 
 Maximum Displacement     0.174202     0.001800     NO 
 RMS     Displacement     0.052682     0.001200     NO 
 Predicted change in Energy=-1.690804D-03
 GradGradGradGradGradGradGradGradGradGradGradGradGradGradGradGradGradGrad

                          Input orientation:                          
 ---------------------------------------------------------------------
 Center     Atomic      Atomic             Coordinates (Angstroms)
 Number     Number       Type             X           Y           Z
 ---------------------------------------------------------------------
      1          6           0       -0.707786   -0.009603    0.013138
      2          9           0       -0.759859   -0.467787    1.243227
      3          9           0       -1.784232    0.732048   -0.176350
      4          9           0       -0.798428   -1.041637   -0.803433
      5          6           0        0.553176    0.791890   -0.247400
      6          1           0        0.537896    1.614068    0.457372
      7          1           0        0.435191    1.219652   -1.239434
      8          7           0        1.756214    0.026585   -0.106822
      9          1           0        1.983769   -0.683690   -0.739230
     10          1           0        2.237983    0.030452    0.752889
 ---------------------------------------------------------------------
                    Distance matrix (angstroms):
                    1          2          3          4          5
     1  C    0.000000
     2  F    1.313683   0.000000
     3  F    1.320867   2.122297   0.000000
     4  F    1.319127   2.125936   2.123912   0.000000
     5  C    1.516672   2.352193   2.339253   2.344745   0.000000
     6  H    2.094128   2.576015   2.563560   3.229266   1.083010
     7  H    2.094373   3.230974   2.508733   2.612535   1.086753
     8  N    2.467183   2.897871   3.610716   2.855269   1.432744
     9  H    2.874877   3.391790   4.064354   2.805863   2.113251
    10  H    3.037497   3.078267   4.187354   3.576493   2.102128
                    6          7          8          9         10
     6  H    0.000000
     7  H    1.745068   0.000000
     8  N    2.079114   2.109815   0.000000
     9  H    2.966832   2.504197   0.977861   0.000000
    10  H    2.342107   2.938299   0.985504   1.673632   0.000000
 Stoichiometry    C2H4F3N
 Framework group  C1[X(C2H4F3N)]
 Deg. of freedom    24
 Full point group                 C1      NOp   1
 Largest Abelian subgroup         C1      NOp   1
 Largest concise Abelian subgroup C1      NOp   1
                         Standard orientation:                         
 ---------------------------------------------------------------------
 Center     Atomic      Atomic             Coordinates (Angstroms)
 Number     Number       Type             X           Y           Z
 ---------------------------------------------------------------------
      1          6           0       -0.438056    0.007840    0.004287
      2          9           0       -0.568695   -0.595437    1.163922
      3          9           0       -1.470729    0.819461   -0.135516
      4          9           0       -0.534814   -0.909844   -0.938364
      5          6           0        0.867784    0.772075   -0.100693
      6          1           0        0.854975    1.500786    0.700387
      7          1           0        0.816048    1.324236   -1.035290
      8          7           0        2.028078   -0.063212   -0.007043
      9          1           0        2.254171   -0.700424   -0.713481
     10          1           0        2.468048   -0.189219    0.865749
 ---------------------------------------------------------------------
 Rotational constants (GHZ):      5.4518169      2.8191999      2.8013336
 Standard basis: 6-311+G(2df,p) (5D, 7F)
 There are   228 symmetry adapted basis functions of A   symmetry.
 Integral buffers will be    131072 words long.
 Raffenetti 1 integral format.
 Two-electron integral symmetry is turned on.
   228 basis functions,   344 primitive gaussians,   258 cartesian basis functions
    25 alpha electrons       25 beta electrons
       nuclear repulsion energy       276.8488697076 Hartrees.
 NAtoms=   10 NActive=   10 NUniq=   10 SFac= 7.50D-01 NAtFMM=   80 NAOKFM=F Big=F
 One-electron integrals computed using PRISM.
 NBasis=   228 RedAO= T  NBF=   228
 NBsUse=   228 1.00D-06 NBFU=   228
 Initial guess read from the read-write file.
 B after Tr=     0.000000    0.000000    0.000000
         Rot=    1.000000    0.000000    0.000000    0.000000 Ang=   0.00 deg.
 Initial guess orbital symmetries:
       Occupied  (A) (A) (A) (A) (A) (A) (A) (A) (A) (A) (A) (A)
                 (A) (A) (A) (A) (A) (A) (A) (A) (A) (A) (A) (A)
                 (A)
       Virtual   (A) (A) (A) (A) (A) (A) (A) (A) (A) (A) (A) (A)
                 (A) (A) (A) (A) (A) (A) (A) (A) (A) (A) (A) (A)
                 (A) (A) (A) (A) (A) (A) (A) (A) (A) (A) (A) (A)
                 (A) (A) (A) (A) (A) (A) (A) (A) (A) (A) (A) (A)
                 (A) (A) (A) (A) (A) (A) (A) (A) (A) (A) (A) (A)
                 (A) (A) (A) (A) (A) (A) (A) (A) (A) (A) (A) (A)
                 (A) (A) (A) (A) (A) (A) (A) (A) (A) (A) (A) (A)
                 (A) (A) (A) (A) (A) (A) (A) (A) (A) (A) (A) (A)
                 (A) (A) (A) (A) (A) (A) (A) (A) (A) (A) (A) (A)
                 (A) (A) (A) (A) (A) (A) (A) (A) (A) (A) (A) (A)
                 (A) (A) (A) (A) (A) (A) (A) (A) (A) (A) (A) (A)
                 (A) (A) (A) (A) (A) (A) (A) (A) (A) (A) (A) (A)
                 (A) (A) (A) (A) (A) (A) (A) (A) (A) (A) (A) (A)
                 (A) (A) (A) (A) (A) (A) (A) (A) (A) (A) (A) (A)
                 (A) (A) (A) (A) (A) (A) (A) (A) (A) (A) (A) (A)
                 (A) (A) (A) (A) (A) (A) (A) (A) (A) (A) (A) (A)
                 (A) (A) (A) (A) (A) (A) (A) (A) (A) (A) (A)
 Harris functional with IExCor=  205 diagonalized for initial guess.
 ExpMin= 4.38D-02 ExpMax= 1.14D+04 ExpMxC= 1.72D+03 IAcc=2 IRadAn=         0 AccDes= 0.00D+00
 HarFok:  IExCor=  205 AccDes= 0.00D+00 IRadAn=         0 IDoV= 1
 ScaDFX=  1.000000  1.000000  1.000000  1.000000
 FoFCou: FMM=F IPFlag=           0 FMFlag=      100000 FMFlg1=           0
         NFxFlg=           0 DoJE=T BraDBF=F KetDBF=T FulRan=T
         Omega=  0.000000  0.000000  1.000000  0.000000  0.000000 ICntrl=     500 IOpCl=  0
         NMat0=    1 NMatS0=    1 NMatT0=    0 NMatD0=    1 NMtDS0=    0 NMtDT0=    0
         I1Cent=           4 NGrid=           0.
 Petite list used in FoFCou.
 Requested convergence on RMS density matrix=1.00D-08 within 128 cycles.
 Requested convergence on MAX density matrix=1.00D-06.
 Requested convergence on             energy=1.00D-06.
 No special actions if energy rises.
 Keep R1 ints in memory in canonical form, NReq=567072802.
 SCF Done:  E(RHF) =  -430.992132010     A.U. after   11 cycles
             Convg  =    0.7590D-08             -V/T =  2.0002
 Calling FoFJK, ICntrl=      2127 FMM=F ISym2X=0 I1Cent= 0 IOpClX= 0 NMat=1 NMatS=1 NMatT=0.
 ***** Axes restored to original set *****
 -------------------------------------------------------------------
 Center     Atomic                   Forces (Hartrees/Bohr)
 Number     Number              X              Y              Z
 -------------------------------------------------------------------
      1        6          -0.000042005    0.000858672   -0.002423142
      2        9          -0.000329525   -0.001424458    0.000053787
      3        9           0.002171412   -0.000589745    0.000455310
      4        9          -0.000405407    0.000128401    0.002066467
      5        6           0.000303094   -0.007645529    0.001873825
      6        1           0.003031570   -0.000490417   -0.000243062
      7        1           0.003761795   -0.002112715    0.000530032
      8        7          -0.005975043    0.023498300    0.001326530
      9        1          -0.001072112   -0.009801923   -0.007840113
     10        1          -0.001443778   -0.002420585    0.004200367
 -------------------------------------------------------------------
 Cartesian Forces:  Max     0.023498300 RMS     0.005424720

 GradGradGradGradGradGradGradGradGradGradGradGradGradGradGradGradGradGrad
 Berny optimization.
 Using GEDIIS/GDIIS optimizer.
 Internal  Forces:  Max     0.013379591 RMS     0.003327217
 Search for a local minimum.
 Step number   5 out of a maximum of   49
 All quantities printed in internal units (Hartrees-Bohrs-Radians)
 Mixed Optimization -- RFO/linear search
 Update second derivatives using D2CorX and points    4    5
 DE= -1.55D-03 DEPred=-1.69D-03 R= 9.14D-01
 SS=  1.41D+00  RLast= 4.26D-01 DXNew= 1.4270D+00 1.2787D+00
 Trust test= 9.14D-01 RLast= 4.26D-01 DXMaxT set to 1.28D+00
 Use linear search instead of GDIIS.
     Eigenvalues ---    0.00161   0.00310   0.00642   0.04066   0.05483
     Eigenvalues ---    0.08424   0.08679   0.09380   0.12523   0.13472
     Eigenvalues ---    0.15986   0.21466   0.24416   0.24982   0.24999
     Eigenvalues ---    0.28761   0.30979   0.35279   0.35916   0.47367
     Eigenvalues ---    0.52320   0.62270   0.63785   0.672451000.00000
     Eigenvalues --- 1000.000001000.000001000.000001000.000001000.00000
     Eigenvalues --- 1000.000001000.000001000.000001000.000001000.00000
     Eigenvalues --- 1000.000001000.000001000.000001000.00000
 RFO step:  Lambda=-3.39416628D-03 EMin= 1.60858520D-03
 Quartic linear search produced a step of  0.05876.
 Iteration  1 RMS(Cart)=  0.04082163 RMS(Int)=  0.04668452
 Iteration  2 RMS(Cart)=  0.03906957 RMS(Int)=  0.00992207
 Iteration  3 RMS(Cart)=  0.00254063 RMS(Int)=  0.00947814
 Iteration  4 RMS(Cart)=  0.00003019 RMS(Int)=  0.00947811
 Iteration  5 RMS(Cart)=  0.00000092 RMS(Int)=  0.00947811
 Variable       Old X    -DE/DX   Delta X   Delta X   Delta X     New X
                                 (Linear)    (Quad)   (Total)
    R1        2.48250   0.00056   0.00049   0.00910   0.00959   2.49209
    R2        2.49608  -0.00217  -0.00021  -0.00680  -0.00701   2.48906
    R3        2.49279  -0.00135   0.00034   0.00442   0.00477   2.49756
    R4        2.86610  -0.00059   0.00073   0.01016   0.01089   2.87698
    R5        2.04659  -0.00057   0.00023   0.00260   0.00283   2.04942
    R6        2.05366  -0.00172   0.00059   0.00633   0.00691   2.06058
    R7        2.70749  -0.01338   0.00348   0.00632   0.00980   2.71729
    R8        1.84789   0.01194  -0.00099   0.03554   0.03455   1.88244
    R9        1.86233   0.00295   0.00025   0.00941   0.00967   1.87200
    A1        1.87325   0.00017   0.00008   0.00230   0.00231   1.87556
    A2        1.87973  -0.00207   0.00094   0.01001   0.01090   1.89062
    A3        1.95856   0.00118  -0.00001   0.00300   0.00292   1.96148
    A4        1.86971   0.00019   0.00008   0.00401   0.00405   1.87377
    A5        1.93498  -0.00153  -0.00089  -0.02258  -0.02352   1.91147
    A6        1.94361   0.00195  -0.00012   0.00407   0.00391   1.94752
    A7        1.85216   0.00138  -0.00042   0.01000   0.00961   1.86177
[...]
 Electronic      0.100000D+01          0.000000          0.000000
 Translational   0.387349D+08          7.588103         17.472252
 Rotational      0.131339D+06          5.118395         11.785539
 ***** Axes restored to original set *****
 -------------------------------------------------------------------
 Center     Atomic                   Forces (Hartrees/Bohr)
 Number     Number              X              Y              Z
 -------------------------------------------------------------------
      1        6          -0.000017582    0.000037421   -0.000025803
      2        9          -0.000005055   -0.000006761   -0.000022108
      3        9           0.000003341   -0.000003122    0.000024138
      4        9           0.000006653   -0.000022862    0.000010232
      5        6           0.000010278    0.000011811    0.000032945
      6        1          -0.000008406    0.000005642   -0.000003624
      7        1          -0.000008269   -0.000002218   -0.000006780
      8        7           0.000007921   -0.000013891    0.000004242
      9        1           0.000015444   -0.000012579    0.000008257
     10        1          -0.000004326    0.000006560   -0.000021500
 -------------------------------------------------------------------
 Cartesian Forces:  Max     0.000037421 RMS     0.000015317

 GradGradGradGradGradGradGradGradGradGradGradGradGradGradGradGradGradGrad
 Berny optimization.
 Internal  Forces:  Max     0.000029998 RMS     0.000011355
 Search for a local minimum.
 Step number   1 out of a maximum of    2
 All quantities printed in internal units (Hartrees-Bohrs-Radians)
 Second derivative matrix not updated -- analytic derivatives used.
     Eigenvalues ---    0.00319   0.00451   0.02827   0.04894   0.05006
     Eigenvalues ---    0.10017   0.11017   0.11807   0.14014   0.16192
     Eigenvalues ---    0.20160   0.21703   0.27816   0.29046   0.29820
     Eigenvalues ---    0.36815   0.37174   0.41609   0.44005   0.44368
     Eigenvalues ---    0.45555   0.51182   0.51288   0.640131000.00000
     Eigenvalues --- 1000.000001000.000001000.000001000.000001000.00000
     Eigenvalues --- 1000.000001000.000001000.000001000.000001000.00000
     Eigenvalues --- 1000.000001000.000001000.000001000.00000
 Angle between quadratic step and forces=  74.52 degrees.
 Linear search not attempted -- first point.
 Iteration  1 RMS(Cart)=  0.00038655 RMS(Int)=  0.00000009
 Iteration  2 RMS(Cart)=  0.00000009 RMS(Int)=  0.00000000
 Variable       Old X    -DE/DX   Delta X   Delta X   Delta X     New X
                                 (Linear)    (Quad)   (Total)
    R1        2.49100  -0.00002   0.00000  -0.00001  -0.00001   2.49099
    R2        2.48649  -0.00001   0.00000  -0.00004  -0.00004   2.48646
    R3        2.49096   0.00001   0.00000   0.00003   0.00003   2.49099
    R4        2.85909   0.00000   0.00000   0.00001   0.00001   2.85911
    R5        2.04608   0.00000   0.00000   0.00000   0.00000   2.04608
    R6        2.04605   0.00001   0.00000   0.00003   0.00003   2.04608
    R7        2.71299   0.00003   0.00000   0.00003   0.00003   2.71302
    R8        1.88657   0.00001   0.00000   0.00001   0.00001   1.88658
    R9        1.88663  -0.00002   0.00000  -0.00005  -0.00005   1.88658
    A1        1.87530  -0.00002   0.00000  -0.00005  -0.00005   1.87525
    A2        1.86801  -0.00002   0.00000  -0.00010  -0.00010   1.86791
    A3        1.95149   0.00001   0.00000   0.00001   0.00001   1.95150
    A4        1.87517   0.00001   0.00000   0.00008   0.00008   1.87525
    A5        1.93824   0.00001   0.00000   0.00006   0.00006   1.93829
    A6        1.95151   0.00001   0.00000  -0.00001  -0.00001   1.95150
    A7        1.86896   0.00000   0.00000   0.00002   0.00002   1.86898
    A8        1.86908  -0.00001   0.00000  -0.00010  -0.00010   1.86898
    A9        2.00310   0.00001   0.00000   0.00002   0.00002   2.00311
   A10        1.87932   0.00000   0.00000  -0.00002  -0.00002   1.87930
   A11        1.91933   0.00000   0.00000   0.00005   0.00005   1.91938
   A12        1.91935   0.00000   0.00000   0.00003   0.00003   1.91938
   A13        1.96294   0.00003   0.00000   0.00017   0.00017   1.96311
   A14        1.96316  -0.00001   0.00000  -0.00005  -0.00005   1.96311
   A15        1.90134  -0.00001   0.00000  -0.00005  -0.00005   1.90129
    D1       -1.08793  -0.00001   0.00000  -0.00069  -0.00069  -1.08862
    D2       -3.09971   0.00000   0.00000  -0.00063  -0.00063  -3.10034
    D3        1.04771   0.00000   0.00000  -0.00060  -0.00060   1.04711
    D4        1.00656  -0.00002   0.00000  -0.00070  -0.00070   1.00586
    D5       -1.00522  -0.00001   0.00000  -0.00064  -0.00064  -1.00586
    D6       -3.14098  -0.00001   0.00000  -0.00061  -0.00061  -3.14159
    D7        3.10091   0.00001   0.00000  -0.00057  -0.00057   3.10034
    D8        1.08912   0.00001   0.00000  -0.00050  -0.00050   1.08862
    D9       -1.04663   0.00001   0.00000  -0.00048  -0.00048  -1.04711
   D10        1.07774   0.00000   0.00000  -0.00040  -0.00040   1.07734
   D11       -1.07692  -0.00001   0.00000  -0.00042  -0.00042  -1.07734
   D12       -3.09727   0.00000   0.00000  -0.00033  -0.00033  -3.09760
   D13        1.03126   0.00000   0.00000  -0.00034  -0.00034   1.03091
   D14       -1.03062   0.00000   0.00000  -0.00030  -0.00030  -1.03091
   D15        3.09792   0.00000   0.00000  -0.00032  -0.00032   3.09760
         Item               Value     Threshold  Converged?
 Maximum Force            0.000030     0.000450     YES
 RMS     Force            0.000011     0.000300     YES
 Maximum Displacement     0.001029     0.001800     YES
 RMS     Displacement     0.000387     0.001200     YES
 Predicted change in Energy=-1.926616D-08
 Optimization completed.
    -- Stationary point found.
                           ----------------------------
                           !   Optimized Parameters   !
                           ! (Angstroms and Degrees)  !
 --------------------------                            --------------------------
 ! Name  Definition              Value          Derivative Info.                !
 --------------------------------------------------------------------------------
 ! R1    R(1,2)                  1.3182         -DE/DX =    0.0                 !
 ! R2    R(1,3)                  1.3158         -DE/DX =    0.0                 !
 ! R3    R(1,4)                  1.3182         -DE/DX =    0.0                 !
 ! R4    R(1,5)                  1.513          -DE/DX =    0.0                 !
 ! R5    R(5,6)                  1.0827         -DE/DX =    0.0                 !
 ! R6    R(5,7)                  1.0827         -DE/DX =    0.0                 !
 ! R7    R(5,8)                  1.4357         -DE/DX =    0.0                 !
 ! R8    R(8,9)                  0.9983         -DE/DX =    0.0                 !
 ! R9    R(8,10)                 0.9984         -DE/DX =    0.0                 !
 ! A1    A(2,1,3)              107.4465         -DE/DX =    0.0                 !
 ! A2    A(2,1,4)              107.0293         -DE/DX =    0.0                 !
 ! A3    A(2,1,5)              111.8122         -DE/DX =    0.0                 !
 ! A4    A(3,1,4)              107.4392         -DE/DX =    0.0                 !
 ! A5    A(3,1,5)              111.0527         -DE/DX =    0.0                 !
 ! A6    A(4,1,5)              111.8134         -DE/DX =    0.0                 !
 ! A7    A(1,5,6)              107.0837         -DE/DX =    0.0                 !
 ! A8    A(1,5,7)              107.0906         -DE/DX =    0.0                 !
 ! A9    A(1,5,8)              114.7689         -DE/DX =    0.0                 !
 ! A10   A(6,5,7)              107.6769         -DE/DX =    0.0                 !
 ! A11   A(6,5,8)              109.9695         -DE/DX =    0.0                 !
 ! A12   A(7,5,8)              109.9706         -DE/DX =    0.0                 !
 ! A13   A(5,8,9)              112.4682         -DE/DX =    0.0                 !
 ! A14   A(5,8,10)             112.4808         -DE/DX =    0.0                 !
 ! A15   A(9,8,10)             108.9389         -DE/DX =    0.0                 !
 ! D1    D(2,1,5,6)            -62.3338         -DE/DX =    0.0                 !
 ! D2    D(2,1,5,7)           -177.6006         -DE/DX =    0.0                 !
 ! D3    D(2,1,5,8)             60.0295         -DE/DX =    0.0                 !
 ! D4    D(3,1,5,6)             57.6718         -DE/DX =    0.0                 !
 ! D5    D(3,1,5,7)            -57.5949         -DE/DX =    0.0                 !
 ! D6    D(3,1,5,8)           -179.9648         -DE/DX =    0.0                 !
 ! D7    D(4,1,5,6)            177.669          -DE/DX =    0.0                 !
 ! D8    D(4,1,5,7)             62.4023         -DE/DX =    0.0                 !
 ! D9    D(4,1,5,8)            -59.9676         -DE/DX =    0.0                 !
 ! D10   D(1,5,8,9)             61.7497         -DE/DX =    0.0                 !
 ! D11   D(1,5,8,10)           -61.7029         -DE/DX =    0.0                 !
 ! D12   D(6,5,8,9)           -177.4606         -DE/DX =    0.0                 !
 ! D13   D(6,5,8,10)            59.0868         -DE/DX =    0.0                 !
 ! D14   D(7,5,8,9)            -59.0499         -DE/DX =    0.0                 !
 ! D15   D(7,5,8,10)           177.4975         -DE/DX =    0.0                 !
 --------------------------------------------------------------------------------
 GradGradGradGradGradGradGradGradGradGradGradGradGradGradGradGradGradGrad

 1\1\GINC-C051\Freq\RHF\6-311+G(2df,p)\C2H4F3N1\RMCCULL2HS2\29-May-2015
 \0\\#N Geom=AllCheck Guess=TCheck SCRF=Check GenChk RHF/6-311+G(2df,p)
  Freq\\title\\0,1\C,-0.6565752934,-0.0095906168,0.0238988314\F,-0.6504
 355589,-0.4694712997,1.2592414236\F,-1.7598910728,0.6904307717,-0.1309
 699333\F,-0.7357491866,-1.0539811625,-0.776424603\C,0.5664146964,0.831
 62389,-0.2688849427\H,0.5336037598,1.6836514199,0.3984182464\H,0.46275
 616,1.202403816,-1.2808477779\N,1.818232268,0.1437142625,-0.1245432187
 \H,1.9048966339,-0.6267853162,-0.7534202229\H,1.9706720967,-0.18001764
 67,0.8074893111\\Version=EM64L-G09RevA.02\State=1-A\HF=-430.9977852\RM
 SD=1.391e-09\RMSF=1.532e-05\ZeroPoint=0.0756783\Thermal=0.0813439\Dipo
 le=0.4625297,0.1282527,-0.0565045\DipoleDeriv=1.6305536,-0.0870223,0.0
 294219,-0.0697778,1.6188784,0.0363043,0.0244553,0.0370256,1.723754,-0.
 4104357,-0.0634789,0.0876272,-0.0448375,-0.4440286,0.2611094,0.0227872
 ,0.21551,-0.9136231,-0.979177,0.327358,-0.0668871,0.2167104,-0.5084826
 ,0.0413303,-0.0351965,0.0367136,-0.3420696,-0.4187828,-0.1309493,-0.05
 97485,-0.0843286,-0.7864704,-0.3318027,-0.0135968,-0.2834706,-0.562836
 5,0.4718717,-0.112064,0.0201472,-0.2265347,0.2882056,-0.0188974,0.0529
 433,-0.0237086,0.1933007,0.0106002,0.0108971,0.0021546,0.0284742,-0.03
 5357,-0.0719938,0.0308946,-0.1037337,0.0032929,0.006795,0.0147256,-0.0
 139493,0.0118931,0.0539908,0.0395229,-0.0468908,0.0718501,-0.0821775,-
 0.8112672,-0.0225183,0.0290245,-0.014494,-0.467188,0.0553649,0.0266581
 ,0.0557214,-0.2930241,0.2444505,0.0062258,-0.0948585,0.0748537,0.10760
 01,-0.0690174,-0.078061,-0.0424236,0.1747524,0.2553915,0.0568261,0.067
 0681,0.1080413,0.1728518,0.0580794,0.0160067,0.0365159,0.0986308\Polar
 =34.4019028,-1.2097235,31.5647521,0.2029613,-0.112505,31.0200968\Polar
 Deriv=-1.0263553,-2.2766696,-0.9885551,0.6606549,0.2502733,-0.937163,-
 2.7896075,-0.0561722,0.4500948,0.190376,1.0663235,1.1862052,0.84043,0.
 20021,1.3214265,-0.1615403,1.9367849,-1.7059847,-0.1929542,-0.5743352,
 0.0073915,1.4088601,0.0562192,-0.0225166,-0.1907238,-0.1510954,-1.2871
 217,0.2220667,1.5842432,-0.8804765,0.4104006,0.0183888,0.7367934,-0.52
 8167,-1.3840439,5.2553975,-5.9710038,2.1342814,-0.5880123,-0.4334009,0
 .0058582,-0.3473658,1.5267882,-2.0609857,1.9944611,0.155577,-0.2115499
 ,0.2786453,-0.3005096,0.1481257,-0.1508154,-1.3677052,0.7110489,-0.350
 9308,-0.4173249,-1.2586629,-0.1899279,-0.9059951,-0.1130889,-0.0433477
 ,-0.4489377,-0.5554131,-3.9043245,-0.3944566,-1.7850714,-1.0320957,-0.
 2908111,-0.1995255,-1.3628676,-0.4623164,-1.937605,-2.4889296,0.247285
 4,2.3664267,0.3224723,-0.6240116,-0.2333368,0.6974484,3.6775127,1.2691
 814,-2.965347,-0.4164957,-1.785112,-3.3943446,-0.9812921,-0.378488,-1.
 8624863,1.1896989,-3.8111388,3.5575155,-0.0507621,0.8842223,-0.0622261
 ,0.8920133,-0.0447629,-0.0760445,0.6023146,-0.2834205,5.8324916,-0.016
 577,2.3419263,2.0048372,1.1885573,-0.2116101,2.8164485,-0.2242916,2.54
 27409,2.2991456,-0.3392814,0.3034621,-0.1281597,-1.263463,0.184677,-0.
 3995224,-0.1151584,-0.2476351,2.057451,0.1274622,-1.6033453,1.8887956,
 -1.3745055,0.3448257,-1.7391921,-0.6062643,2.5813814,-6.6619083,6.1619
 337,-0.8361506,0.0982797,-0.0099796,0.2737235,0.2176541,-1.0151257,-0.
 2135086,2.7743063,0.234826,1.4523447,3.0671635,0.0226117,0.234564,1.49
 01572,-0.2197665,3.2429753,-3.1669831,0.6775978,-0.5357979,0.9545373,-
 0.6484099,0.2672673,0.0688953,-0.9176357,1.5044877,-4.0618377,0.544236
 1,-2.1101759,-1.803786,-0.9974775,0.6886024,-2.7897416,0.682379,-2.017
 6868,-2.3860616,0.9108646,-0.2067762,0.5742002,0.9237319,-0.6468299,0.
 8419621,-0.3294266,0.7945614,-0.8901738,-0.6470147,1.0504168,-1.314944
 1,1.4825963,-0.845093,1.5402774,1.6979735,-1.8644569,5.6487396\HyperPo
 lar=31.7113131,12.3821318,5.5979427,14.7464541,-4.0775784,1.2091955,4.
 0225183,9.1108257,12.2500704,-13.1776715\PG=C01 [X(C2H4F3N1)]\NImag=0\
 \0.71480109,0.04016297,0.68437184,-0.01456290,-0.01375976,0.64675138,-
 0.10123118,-0.01484877,0.02115781,0.09059546,-0.02013474,-0.13307273,0
 .08878362,-0.00501740,0.13987373,0.03221403,0.09404638,-0.28920700,0.0
 0456743,-0.12507163,0.43664680,-0.30368170,0.08241414,-0.01465172,-0.0
 0852772,0.02693840,-0.03477753,0.36510616,0.09613262,-0.13777865,0.010
 16175,0.03671176,-0.01937539,0.03618547,-0.18148548,0.20585233,-0.0185
 9740,0.01073575,-0.09068571,-0.05496405,0.04436732,-0.02868749,0.04079
 779,-0.02420006,0.10031002,-0.10538739,-0.03589233,-0.01694771,0.01507
 214,0.00164987,-0.00291483,-0.00302074,0.05755295,0.02760566,0.0917960
 2,-0.04581043,-0.25772755,-0.10417060,0.00127433,0.01724423,-0.0222573
 3,0.03796726,-0.06044100,-0.02956528,0.01330300,0.33581452,-0.02363769
 ,-0.11006753,-0.16044386,-0.00757055,-0.04520005,-0.09010402,0.0158448
 2,-0.02261339,0.00683797,0.01453156,0.18775877,0.23959557,-0.17639692,
 -0.07561807,0.02533161,0.00659065,0.00372283,-0.00742311,-0.03967863,-
 0.00807559,0.00431293,0.00454485,0.00336283,0.00351144,0.56963795,-0.0
 7211475,-0.13730065,0.01662731,-0.01347068,-0.00617821,0.01403003,0.04
 146248,0.00772990,-0.00167578,-0.03152267,-0.03687281,-0.00941291,-0.0
 3228166,0.64832050,0.02432765,0.01677785,-0.09576711,0.03457963,0.0382
 5539,-0.03371001,-0.00990644,0.00039783,0.00822049,-0.02353386,-0.0358
 3003,-0.00097219,0.01604802,0.02512242,0.72349035,0.00433746,-0.021581
 08,-0.02230330,0.00077324,0.00197746,0.00054864,0.00103305,0.00137728,
 0.00092444,-0.00615889,-0.00844333,-0.00080155,-0.06100474,-0.00303374
 ,0.00051452,0.07084247,0.00266579,-0.01983334,-0.01943448,0.00063023,0
 .00228141,0.00141389,-0.00006021,0.00238222,0.00171406,-0.00458176,-0.
 00424320,-0.00043549,-0.00188327,-0.23015478,-0.13183452,-0.00487456,0
 .25084899,0.00216167,0.00614688,0.00252995,-0.00056697,-0.00044747,0.0
 0131557,-0.00151875,0.00067867,0.00012812,0.00163098,0.00251901,0.0021
 7127,0.00138506,-0.13995041,-0.17259237,-0.00280545,0.15153648,0.17643
 349,0.00627549,-0.00673635,0.02966028,-0.00588250,-0.00657604,0.005798
 25,0.00105139,0.00058579,-0.00149283,0.00071960,0.00141927,-0.00144880
 ,-0.06227564,0.00346390,-0.01642401,0.00021222,-0.00028997,-0.00052852
 ,0.07274756,0.00280952,-0.00748056,0.02492351,-0.00437402,-0.00312123,
 0.00413582,0.00059055,0.00064567,-0.00207513,0.00072575,0.00152435,-0.
 00160738,0.00334215,-0.09192424,0.08159861,-0.00177378,0.01310376,-0.0
 2682625,-0.00994029,0.09408922,-0.00448800,0.00076981,-0.01175113,0.00
 162290,0.00143874,0.00077523,0.00135589,-0.00110068,0.00185122,0.00025
 733,0.00017489,0.00211641,-0.01758934,0.08975230,-0.30958670,-0.000692
 90,0.00721204,-0.01843268,0.02307787,-0.09977709,0.33130989,-0.0357473
 3,0.02449312,-0.00563067,0.00171490,-0.00099689,0.00040913,-0.01430855
 ,-0.00081888,0.00093578,0.00171175,-0.00088696,0.00017614,-0.22628816,
 0.06301931,-0.01391592,-0.00599660,0.00629534,0.00071806,-0.00897719,0
 .00649832,-0.00337730,0.37178313,-0.00232769,0.00661818,-0.00254939,-0
 .00074524,0.00244242,-0.00171833,-0.00786087,0.00117541,0.00068179,-0.
 00058257,0.00437770,0.00105053,0.11661622,-0.13127291,-0.00400816,0.03
 243204,-0.01325581,0.00474040,0.01316570,-0.00493655,0.00105367,-0.215
 92213,0.54444454,0.00206378,-0.00368403,-0.00163063,0.00014743,-0.0020
 1958,0.00318761,0.00295646,0.00038769,0.00217425,0.00026463,0.00137462
 ,0.00126134,-0.02924230,-0.00176269,-0.12644116,0.02742749,-0.01201243
 ,0.00627156,-0.03949112,0.01919383,0.00093203,0.08036679,0.08581082,0.
 78436571,-0.00124183,0.00527273,0.00416983,-0.00007250,-0.00061507,-0.
 00041293,0.00094757,-0.00122341,-0.00059276,0.00075240,-0.00185775,-0.
 00128640,-0.00619033,0.03189572,0.02772115,-0.00554492,0.00251881,-0.0
 0135547,0.00147231,-0.00082450,-0.00059722,-0.04020320,0.02683553,-0.0
 1546188,0.05087896,-0.00050702,0.00110901,0.00023260,-0.00016951,-0.00
 014316,-0.00012943,-0.00019351,-0.00007195,-0.00002997,-0.00047490,0.0
 0053845,0.00031214,-0.00553192,-0.01573646,-0.01216979,0.00430715,-0.0
 0084227,0.00146167,-0.00020195,-0.00009805,0.00034186,0.06124949,-0.31
 001325,-0.22798737,-0.05425426,0.31268828,0.00081852,-0.00105297,-0.00
 015135,0.00009067,0.00034790,-0.00008552,-0.00077877,0.00018458,-0.000
 03219,-0.00090338,0.00023418,-0.00040454,0.00115150,0.00554929,0.00686
 027,-0.00255018,0.00179013,0.00156928,0.00035520,0.00046035,0.00045664
 ,0.00894791,-0.19612336,-0.23162066,-0.01027414,0.22432096,0.24713262,
 -0.00172769,0.00233365,-0.00622324,0.00096750,-0.00094840,0.00199093,0
 .00107918,-0.00075703,0.00107044,-0.00002974,-0.00032823,0.00068104,-0
 .00893904,0.01258210,-0.03941073,0.00150670,-0.00042040,0.00087937,-0.
 00534323,0.00294630,0.00043076,-0.04368875,0.03838902,-0.02903129,-0.0
 0079846,-0.00422356,0.00314267,0.05697352,-0.00087626,0.00109445,-0.00
 081456,0.00000931,0.00004892,-0.00063485,0.00022724,-0.00011854,0.0000
 4728,-0.00017735,-0.00021469,0.00021531,-0.00365353,-0.00661035,0.0216
 9040,-0.00038742,-0.00028699,0.00014102,0.00510995,-0.00180238,0.00013
 446,0.05706930,-0.09957973,0.14069914,-0.00774779,0.01256939,-0.035711
 05,-0.04957345,0.09489991,-0.00029966,0.00008761,0.00035543,0.00093570
 ,-0.00045424,-0.00013116,0.00067825,-0.00008186,-0.00011667,0.00000962
 ,-0.00023823,-0.00005795,0.00251419,0.00172044,0.00049843,-0.00026171,
 0.00005031,0.00060581,0.00049369,-0.00002627,0.00232907,-0.06862994,0.
 11106203,-0.43850004,-0.00191019,0.01364734,-0.02372455,0.06647004,-0.
 12576715,0.45874163\\0.00001758,-0.00003742,0.00002580,0.00000506,0.00
 000676,0.00002211,-0.00000334,0.00000312,-0.00002414,-0.00000665,0.000
 02286,-0.00001023,-0.00001028,-0.00001181,-0.00003295,0.00000841,-0.00
 000564,0.00000362,0.00000827,0.00000222,0.00000678,-0.00000792,0.00001
 389,-0.00000424,-0.00001544,0.00001258,-0.00000826,0.00000433,-0.00000
 656,0.00002150\\\@


 Standing in the middle of the road is very dangerous;
 you get knocked down by the traffic from both sides.
                                -- Margaret Thatcher
 Job cpu time:  0 days  0 hours 17 minutes 42.5 seconds.
 File lengths (MBytes):  RWF=     49 Int=      0 D2E=      0 Chk=      4 Scr=      1
 Normal termination of Gaussian 09 at Fri May 29 10:29:45 2015.
