 Entering Gaussian System, Link 0=g09
 Input=Gas-HF-6-311+G2dfp-Freq-Opt-CF3CH2SNHCF3CH2.inp
 Output=Gas-HF-6-311+G2dfp-Freq-Opt-CF3CH2SNHCF3CH2.log
 Initial command:
 /usr/local/g09/l1.exe /local/gaussian-tmp/3702324/Gau-27199.inp -scrdir=/local/gaussian-tmp/3702324/
 Entering Link 1 = /usr/local/g09/l1.exe PID=     27200.
  
 Copyright (c) 1988,1990,1992,1993,1995,1998,2003,2009, Gaussian, Inc.
                  All Rights Reserved.
  
 This is part of the Gaussian(R) 09 program.  It is based on
 the Gaussian(R) 03 system (copyright 2003, Gaussian, Inc.),
 the Gaussian(R) 98 system (copyright 1998, Gaussian, Inc.),
 the Gaussian(R) 94 system (copyright 1995, Gaussian, Inc.),
 the Gaussian 92(TM) system (copyright 1992, Gaussian, Inc.),
 the Gaussian 90(TM) system (copyright 1990, Gaussian, Inc.),
 the Gaussian 88(TM) system (copyright 1988, Gaussian, Inc.),
 the Gaussian 86(TM) system (copyright 1986, Carnegie Mellon
 University), and the Gaussian 82(TM) system (copyright 1983,
 Carnegie Mellon University). Gaussian is a federally registered
 trademark of Gaussian, Inc.
  
 This software contains proprietary and confidential information,
 including trade secrets, belonging to Gaussian, Inc.
  
 This software is provided under written license and may be
 used, copied, transmitted, or stored only in accord with that
 written license.
  
 The following legend is applicable only to US Government
 contracts under FAR:
  
                    RESTRICTED RIGHTS LEGEND
  
 Use, reproduction and disclosure by the US Government is
 subject to restrictions as set forth in subparagraphs (a)
 and (c) of the Commercial Computer Software - Restricted
 Rights clause in FAR 52.227-19.
  
 Gaussian, Inc.
 340 Quinnipiac St., Bldg. 40, Wallingford CT 06492
  
  
 ---------------------------------------------------------------
 Warning -- This program may not be used in any manner that
 competes with the business of Gaussian, Inc. or will provide
 assistance to any competitor of Gaussian, Inc.  The licensee
 of this program is prohibited from giving any competitor of
 Gaussian, Inc. access to this program.  By using this program,
 the user acknowledges that Gaussian, Inc. is engaged in the
 business of creating and licensing software in the field of
 computational chemistry and represents and warrants to the
 licensee that it is not a competitor of Gaussian, Inc. and that
 it will not use this program in any manner prohibited above.
 ---------------------------------------------------------------
  

 Cite this work as:
 Gaussian 09, Revision A.02,
 M. J. Frisch, G. W. Trucks, H. B. Schlegel, G. E. Scuseria, 
 M. A. Robb, J. R. Cheeseman, G. Scalmani, V. Barone, B. Mennucci, 
 G. A. Petersson, H. Nakatsuji, M. Caricato, X. Li, H. P. Hratchian, 
 A. F. Izmaylov, J. Bloino, G. Zheng, J. L. Sonnenberg, M. Hada, 
 M. Ehara, K. Toyota, R. Fukuda, J. Hasegawa, M. Ishida, T. Nakajima, 
 Y. Honda, O. Kitao, H. Nakai, T. Vreven, J. A. Montgomery, Jr., 
 J. E. Peralta, F. Ogliaro, M. Bearpark, J. J. Heyd, E. Brothers, 
 K. N. Kudin, V. N. Staroverov, R. Kobayashi, J. Normand, 
 K. Raghavachari, A. Rendell, J. C. Burant, S. S. Iyengar, J. Tomasi, 
 M. Cossi, N. Rega, J. M. Millam, M. Klene, J. E. Knox, J. B. Cross, 
 V. Bakken, C. Adamo, J. Jaramillo, R. Gomperts, R. E. Stratmann, 
 O. Yazyev, A. J. Austin, R. Cammi, C. Pomelli, J. W. Ochterski, 
 R. L. Martin, K. Morokuma, V. G. Zakrzewski, G. A. Voth, 
 P. Salvador, J. J. Dannenberg, S. Dapprich, A. D. Daniels, 
 O. Farkas, J. B. Foresman, J. V. Ortiz, J. Cioslowski, 
 and D. J. Fox, Gaussian, Inc., Wallingford CT, 2009.
 
 ******************************************
 Gaussian 09:  EM64L-G09RevA.02 11-Jun-2009
                29-May-2015 
 ******************************************
 %chk=dasaassdadsads
 %mem=10GB
 %nproc=8
 Will use up to    8 processors via shared memory.
 ----------------------------
 # HF/6-311+G(2df,p) Opt Freq
 ----------------------------
 1/18=20,19=15,38=1/1,3;
 2/9=110,12=2,17=6,18=5,40=1/2;
 3/5=4,6=6,7=114,11=9,16=1,25=1,30=1,71=1/1,2,3;
 4//1;
 5/5=2,38=5/2;
 6/7=2,8=2,9=2,10=2,28=1/1;
 7//1,2,3,16;
 1/18=20,19=15/3(2);
 2/9=110/2;
 99//99;
 2/9=110/2;
 3/5=4,6=6,7=114,11=9,16=1,25=1,30=1,71=1/1,2,3;
 4/5=5,16=3/1;
 5/5=2,38=5/2;
 7//1,2,3,16;
 1/18=20,19=15/3(-5);
 2/9=110/2;
 6/7=2,8=2,9=2,10=2,19=2,28=1/1;
 99/9=1/99;
 -----
 title
 -----
 Symbolic Z-matrix:
 Charge =  0 Multiplicity = 1
 6                    -3.0792   -0.04885   0.152 
 9                    -2.83201  -1.24067  -0.3353 
 9                    -3.98349  -0.19004   1.10061 
 9                    -3.62115   0.66935  -0.80309 
 6                    -1.84635   0.61259   0.72351 
 1                    -1.4954    0.028     1.55996 
 1                    -2.14073   1.59019   1.08282 
 16                   -0.51415   0.88607  -0.4722 
 7                     0.51413  -0.88594  -0.47232 
 6                     1.84632  -0.61264   0.72344 
 1                     1.49537  -0.02811   1.55993 
 1                     2.14065  -1.59028   1.08266 
 6                     3.07921   0.04881   0.15202 
 9                     3.62114  -0.66932  -0.80314 
 9                     2.83208   1.24068  -0.33516 
 9                     3.9835    0.18986   1.10065 
 1                     0.3247   -1.70917  -1.00749 
 

 GradGradGradGradGradGradGradGradGradGradGradGradGradGradGradGradGradGrad
 Berny optimization.
 Initialization pass.
                           ----------------------------
                           !    Initial Parameters    !
                           ! (Angstroms and Degrees)  !
 --------------------------                            --------------------------
 ! Name  Definition              Value          Derivative Info.                !
 --------------------------------------------------------------------------------
 ! R1    R(1,2)                  1.3111         estimate D2E/DX2                !
 ! R2    R(1,3)                  1.3182         estimate D2E/DX2                !
 ! R3    R(1,4)                  1.3121         estimate D2E/DX2                !
 ! R4    R(1,5)                  1.5113         estimate D2E/DX2                !
 ! R5    R(5,6)                  1.0791         estimate D2E/DX2                !
 ! R6    R(5,7)                  1.0823         estimate D2E/DX2                !
 ! R7    R(5,8)                  1.8109         estimate D2E/DX2                !
 ! R8    R(8,9)                  2.0488         estimate D2E/DX2                !
 ! R9    R(9,10)                 1.8109         estimate D2E/DX2                !
 ! R10   R(9,17)                 1.0            estimate D2E/DX2                !
 ! R11   R(10,11)                1.0791         estimate D2E/DX2                !
 ! R12   R(10,12)                1.0823         estimate D2E/DX2                !
 ! R13   R(10,13)                1.5113         estimate D2E/DX2                !
 ! R14   R(13,14)                1.3121         estimate D2E/DX2                !
 ! R15   R(13,15)                1.3111         estimate D2E/DX2                !
 ! R16   R(13,16)                1.3182         estimate D2E/DX2                !
 ! A1    A(2,1,3)              107.4243         estimate D2E/DX2                !
 ! A2    A(2,1,4)              107.7515         estimate D2E/DX2                !
 ! A3    A(2,1,5)              112.6188         estimate D2E/DX2                !
 ! A4    A(3,1,4)              107.4035         estimate D2E/DX2                !
 ! A5    A(3,1,5)              109.534          estimate D2E/DX2                !
 ! A6    A(4,1,5)              111.8777         estimate D2E/DX2                !
 ! A7    A(1,5,6)              108.7422         estimate D2E/DX2                !
 ! A8    A(1,5,7)              107.3963         estimate D2E/DX2                !
 ! A9    A(1,5,8)              114.6152         estimate D2E/DX2                !
 ! A10   A(6,5,7)              108.689          estimate D2E/DX2                !
 ! A11   A(6,5,8)              110.7538         estimate D2E/DX2                !
 ! A12   A(7,5,8)              106.4325         estimate D2E/DX2                !
 ! A13   A(5,8,9)              103.8072         estimate D2E/DX2                !
 ! A14   A(8,9,10)             103.8072         estimate D2E/DX2                !
 ! A15   A(8,9,17)             128.0964         estimate D2E/DX2                !
 ! A16   A(10,9,17)            128.0964         estimate D2E/DX2                !
 ! A17   A(9,10,11)            110.7534         estimate D2E/DX2                !
 ! A18   A(9,10,12)            106.4326         estimate D2E/DX2                !
 ! A19   A(9,10,13)            114.615          estimate D2E/DX2                !
 ! A20   A(11,10,12)           108.6892         estimate D2E/DX2                !
 ! A21   A(11,10,13)           108.7424         estimate D2E/DX2                !
 ! A22   A(12,10,13)           107.3964         estimate D2E/DX2                !
 ! A23   A(10,13,14)           111.8777         estimate D2E/DX2                !
 ! A24   A(10,13,15)           112.6186         estimate D2E/DX2                !
 ! A25   A(10,13,16)           109.5341         estimate D2E/DX2                !
 ! A26   A(14,13,15)           107.7515         estimate D2E/DX2                !
 ! A27   A(14,13,16)           107.4037         estimate D2E/DX2                !
 ! A28   A(15,13,16)           107.4242         estimate D2E/DX2                !
 ! D1    D(2,1,5,6)            -63.5584         estimate D2E/DX2                !
 ! D2    D(2,1,5,7)            178.9964         estimate D2E/DX2                !
 ! D3    D(2,1,5,8)             60.9866         estimate D2E/DX2                !
 ! D4    D(3,1,5,6)             55.9156         estimate D2E/DX2                !
 ! D5    D(3,1,5,7)            -61.5296         estimate D2E/DX2                !
 ! D6    D(3,1,5,8)           -179.5394         estimate D2E/DX2                !
 ! D7    D(4,1,5,6)            174.8925         estimate D2E/DX2                !
 ! D8    D(4,1,5,7)             57.4473         estimate D2E/DX2                !
 ! D9    D(4,1,5,8)            -60.5625         estimate D2E/DX2                !
 ! D10   D(1,5,8,9)            -85.5471         estimate D2E/DX2                !
 ! D11   D(6,5,8,9)             37.9276         estimate D2E/DX2                !
 ! D12   D(7,5,8,9)            155.8984         estimate D2E/DX2                !
 ! D13   D(5,8,9,10)           -94.3197         estimate D2E/DX2                !
 ! D14   D(5,8,9,17)            85.6803         estimate D2E/DX2                !
 ! D15   D(8,9,10,11)           37.9235         estimate D2E/DX2                !
 ! D16   D(8,9,10,12)          155.8944         estimate D2E/DX2                !
 ! D17   D(8,9,10,13)          -85.551          estimate D2E/DX2                !
 ! D18   D(17,9,10,11)        -142.0765         estimate D2E/DX2                !
 ! D19   D(17,9,10,12)         -24.1056         estimate D2E/DX2                !
 ! D20   D(17,9,10,13)          94.449          estimate D2E/DX2                !
 ! D21   D(9,10,13,14)         -60.5618         estimate D2E/DX2                !
 ! D22   D(9,10,13,15)          60.9872         estimate D2E/DX2                !
 ! D23   D(9,10,13,16)        -179.5391         estimate D2E/DX2                !
 ! D24   D(11,10,13,14)        174.8937         estimate D2E/DX2                !
 ! D25   D(11,10,13,15)        -63.5574         estimate D2E/DX2                !
 ! D26   D(11,10,13,16)         55.9164         estimate D2E/DX2                !
 ! D27   D(12,10,13,14)         57.4481         estimate D2E/DX2                !
 ! D28   D(12,10,13,15)        178.997          estimate D2E/DX2                !
 ! D29   D(12,10,13,16)        -61.5292         estimate D2E/DX2                !
 --------------------------------------------------------------------------------
 Trust Radius=3.00D-01 FncErr=1.00D-07 GrdErr=1.00D-07
 Number of steps in this run=  83 maximum allowed number of steps= 102.
 GradGradGradGradGradGradGradGradGradGradGradGradGradGradGradGradGradGrad

                          Input orientation:                          
 ---------------------------------------------------------------------
 Center     Atomic      Atomic             Coordinates (Angstroms)
 Number     Number       Type             X           Y           Z
 ---------------------------------------------------------------------
      1          6           0       -3.079200   -0.048854    0.151999
      2          9           0       -2.832014   -1.240668   -0.335299
      3          9           0       -3.983492   -0.190044    1.100607
      4          9           0       -3.621153    0.669350   -0.803090
      5          6           0       -1.846352    0.612590    0.723511
      6          1           0       -1.495399    0.027995    1.559956
      7          1           0       -2.140729    1.590186    1.082824
      8         16           0       -0.514150    0.886070   -0.472195
      9          7           0        0.514131   -0.885942   -0.472323
     10          6           0        1.846323   -0.612640    0.723441
     11          1           0        1.495373   -0.028110    1.559933
     12          1           0        2.140650   -1.590283    1.082664
     13          6           0        3.079210    0.048807    0.152016
     14          9           0        3.621140   -0.669320   -0.803144
     15          9           0        2.832082    1.240684   -0.335158
     16          9           0        3.983495    0.189858    1.100650
     17          1           0        0.324698   -1.709173   -1.007493
 ---------------------------------------------------------------------
                    Distance matrix (angstroms):
                    1          2          3          4          5
     1  C    0.000000
     2  F    1.311099   0.000000
     3  F    1.318156   2.119325   0.000000
     4  F    1.312145   2.118900   2.119884   0.000000
     5  C    1.511307   2.350994   2.313826   2.341720   0.000000
     6  H    2.120536   2.643490   2.539518   3.242553   1.079148
     7  H    2.105615   3.240784   2.562286   2.568320   1.082339
     8  S    2.800568   3.148690   3.958290   3.132080   1.810874
     9  N    3.741994   3.367684   4.815288   4.430453   3.040970
    10  C    4.990509   4.837581   5.857268   5.819544   3.890635
    11  H    4.786379   4.877343   5.500469   5.678835   3.503887
    12  H    5.521682   5.182686   6.282206   6.469960   4.569226
    13  C    6.159184   6.069826   7.130122   6.796482   4.990553
    14  F    6.796457   6.495269   7.853942   7.364974   5.819574
    15  F    6.069883   6.183776   7.110587   6.495354   4.837667
    16  F    7.130118   7.110522   7.976040   7.853968   5.857308
    17  H    3.960758   3.261315   5.031137   4.611821   3.619450
                    6          7          8          9         10
     6  H    0.000000
     7  H    1.756288   0.000000
     8  S    2.414287   2.357885   0.000000
     9  N    3.000608   3.949427   2.048753   0.000000
    10  C    3.503894   4.569265   3.040972   1.810879   0.000000
    11  H    2.991298   4.008460   3.000575   2.414286   1.079148
    12  H    4.008427   5.333441   3.949414   2.357890   1.082338
    13  C    4.786416   5.521777   3.742043   2.800569   1.511307
    14  F    5.678861   6.470037   4.430507   3.132072   2.341719
    15  F    4.877414   5.182825   3.367759   3.148690   2.350992
    16  F    5.500495   6.282305   4.815326   3.958292   2.313827
    17  H    3.594760   4.618823   2.779477   1.000000   2.552226
                   11         12         13         14         15
    11  H    0.000000
    12  H    1.756289   0.000000
    13  C    2.120539   2.105615   0.000000
    14  F    3.242556   2.568325   1.312145   0.000000
    15  F    2.643482   3.240783   1.311099   2.118900   0.000000
    16  F    2.539528   2.562285   1.318155   2.119887   2.119323
    17  H    3.284528   2.771384   3.467317   3.462597   3.929461
                   16         17
    16  F    0.000000
    17  H    4.630051   0.000000
 Stoichiometry    C4H5F6NS
 Framework group  C1[X(C4H5F6NS)]
 Deg. of freedom    45
 Full point group                 C1      NOp   1
 Largest Abelian subgroup         C1      NOp   1
 Largest concise Abelian subgroup C1      NOp   1
                         Standard orientation:                         
 ---------------------------------------------------------------------
 Center     Atomic      Atomic             Coordinates (Angstroms)
 Number     Number       Type             X           Y           Z
 ---------------------------------------------------------------------
      1          6           0       -3.038787   -0.115568    0.109367
      2          9           0       -2.798677   -1.196170   -0.593219
      3          9           0       -3.941365   -0.427891    1.017852
      4          9           0       -3.579620    0.771060   -0.692578
      5          6           0       -1.801274    0.421851    0.790389
      6          1           0       -1.451082   -0.310493    1.501442
      7          1           0       -2.089948    1.316184    1.327319
      8         16           0       -0.470768    0.908517   -0.337519
      9          7           0        0.548811   -0.836602   -0.672790
     10          6           0        1.885338   -0.797738    0.548465
     11          1           0        1.539369   -0.378592    1.480764
     12          1           0        2.175775   -1.826609    0.717360
     13          6           0        3.120008   -0.046385    0.106753
     14          9           0        3.656000   -0.575384   -0.967769
     15          9           0        2.877497    1.216677   -0.147895
     16          9           0        4.027363   -0.089318    1.061947
     17          1           0        0.353996   -1.544281   -1.351935
 ---------------------------------------------------------------------
 Rotational constants (GHZ):      2.1473396      0.2737532      0.2700291
 Standard basis: 6-311+G(2df,p) (5D, 7F)
 There are   446 symmetry adapted basis functions of A   symmetry.
 Integral buffers will be    131072 words long.
 Raffenetti 1 integral format.
 Two-electron integral symmetry is turned on.
   446 basis functions,   678 primitive gaussians,   506 cartesian basis functions
    53 alpha electrons       53 beta electrons
       nuclear repulsion energy       884.9491832055 Hartrees.
 NAtoms=   17 NActive=   17 NUniq=   17 SFac= 7.50D-01 NAtFMM=   80 NAOKFM=F Big=F
 One-electron integrals computed using PRISM.
 NBasis=   446 RedAO= T  NBF=   446
 NBsUse=   446 1.00D-06 NBFU=   446
 Harris functional with IExCor=  205 diagonalized for initial guess.
 ExpMin= 4.05D-02 ExpMax= 9.34D+04 ExpMxC= 3.17D+03 IAcc=2 IRadAn=         0 AccDes= 0.00D+00
 HarFok:  IExCor=  205 AccDes= 0.00D+00 IRadAn=         0 IDoV= 1
 ScaDFX=  1.000000  1.000000  1.000000  1.000000
 FoFCou: FMM=F IPFlag=           0 FMFlag=      100000 FMFlg1=           0
         NFxFlg=           0 DoJE=T BraDBF=F KetDBF=T FulRan=T
         Omega=  0.000000  0.000000  1.000000  0.000000  0.000000 ICntrl=     500 IOpCl=  0
         NMat0=    1 NMatS0=    1 NMatT0=    0 NMatD0=    1 NMtDS0=    0 NMtDT0=    0
         I1Cent=           4 NGrid=           0.
 Petite list used in FoFCou.
 Initial guess orbital symmetries:
       Occupied  (A) (A) (A) (A) (A) (A) (A) (A) (A) (A) (A) (A)
                 (A) (A) (A) (A) (A) (A) (A) (A) (A) (A) (A) (A)
                 (A) (A) (A) (A) (A) (A) (A) (A) (A) (A) (A) (A)
                 (A) (A) (A) (A) (A) (A) (A) (A) (A) (A) (A) (A)
                 (A) (A) (A) (A) (A)
       Virtual   (A) (A) (A) (A) (A) (A) (A) (A) (A) (A) (A) (A)
                 (A) (A) (A) (A) (A) (A) (A) (A) (A) (A) (A) (A)
                 (A) (A) (A) (A) (A) (A) (A) (A) (A) (A) (A) (A)
                 (A) (A) (A) (A) (A) (A) (A) (A) (A) (A) (A) (A)
                 (A) (A) (A) (A) (A) (A) (A) (A) (A) (A) (A) (A)
                 (A) (A) (A) (A) (A) (A) (A) (A) (A) (A) (A) (A)
                 (A) (A) (A) (A) (A) (A) (A) (A) (A) (A) (A) (A)
                 (A) (A) (A) (A) (A) (A) (A) (A) (A) (A) (A) (A)
                 (A) (A) (A) (A) (A) (A) (A) (A) (A) (A) (A) (A)
                 (A) (A) (A) (A) (A) (A) (A) (A) (A) (A) (A) (A)
                 (A) (A) (A) (A) (A) (A) (A) (A) (A) (A) (A) (A)
                 (A) (A) (A) (A) (A) (A) (A) (A) (A) (A) (A) (A)
                 (A) (A) (A) (A) (A) (A) (A) (A) (A) (A) (A) (A)
                 (A) (A) (A) (A) (A) (A) (A) (A) (A) (A) (A) (A)
                 (A) (A) (A) (A) (A) (A) (A) (A) (A) (A) (A) (A)
                 (A) (A) (A) (A) (A) (A) (A) (A) (A) (A) (A) (A)
                 (A) (A) (A) (A) (A) (A) (A) (A) (A) (A) (A) (A)
                 (A) (A) (A) (A) (A) (A) (A) (A) (A) (A) (A) (A)
                 (A) (A) (A) (A) (A) (A) (A) (A) (A) (A) (A) (A)
                 (A) (A) (A) (A) (A) (A) (A) (A) (A) (A) (A) (A)
                 (A) (A) (A) (A) (A) (A) (A) (A) (A) (A) (A) (A)
                 (A) (A) (A) (A) (A) (A) (A) (A) (A) (A) (A) (A)
                 (A) (A) (A) (A) (A) (A) (A) (A) (A) (A) (A) (A)
                 (A) (A) (A) (A) (A) (A) (A) (A) (A) (A) (A) (A)
                 (A) (A) (A) (A) (A) (A) (A) (A) (A) (A) (A) (A)
                 (A) (A) (A) (A) (A) (A) (A) (A) (A) (A) (A) (A)
                 (A) (A) (A) (A) (A) (A) (A) (A) (A) (A) (A) (A)
                 (A) (A) (A) (A) (A) (A) (A) (A) (A) (A) (A) (A)
                 (A) (A) (A) (A) (A) (A) (A) (A) (A) (A) (A) (A)
                 (A) (A) (A) (A) (A) (A) (A) (A) (A) (A) (A) (A)
                 (A) (A) (A) (A) (A) (A) (A) (A) (A) (A) (A) (A)
                 (A) (A) (A) (A) (A) (A) (A) (A) (A) (A) (A) (A)
                 (A) (A) (A) (A) (A) (A) (A) (A) (A)
 The electronic state of the initial guess is 1-A.
 Requested convergence on RMS density matrix=1.00D-08 within 128 cycles.
 Requested convergence on MAX density matrix=1.00D-06.
 Requested convergence on             energy=1.00D-06.
 No special actions if energy rises.
 Initial convergence to 1.0D-05 achieved.  Increase integral accuracy.
 SCF Done:  E(RHF) =  -1203.18281962     A.U. after   15 cycles
             Convg  =    0.9439D-08             -V/T =  2.0008

 **********************************************************************

            Population analysis using the SCF density.

 **********************************************************************

 Orbital symmetries:
       Occupied  (A) (A) (A) (A) (A) (A) (A) (A) (A) (A) (A) (A)
                 (A) (A) (A) (A) (A) (A) (A) (A) (A) (A) (A) (A)
                 (A) (A) (A) (A) (A) (A) (A) (A) (A) (A) (A) (A)
                 (A) (A) (A) (A) (A) (A) (A) (A) (A) (A) (A) (A)
                 (A) (A) (A) (A) (A)
       Virtual   (A) (A) (A) (A) (A) (A) (A) (A) (A) (A) (A) (A)
                 (A) (A) (A) (A) (A) (A) (A) (A) (A) (A) (A) (A)
                 (A) (A) (A) (A) (A) (A) (A) (A) (A) (A) (A) (A)
                 (A) (A) (A) (A) (A) (A) (A) (A) (A) (A) (A) (A)
                 (A) (A) (A) (A) (A) (A) (A) (A) (A) (A) (A) (A)
                 (A) (A) (A) (A) (A) (A) (A) (A) (A) (A) (A) (A)
                 (A) (A) (A) (A) (A) (A) (A) (A) (A) (A) (A) (A)
                 (A) (A) (A) (A) (A) (A) (A) (A) (A) (A) (A) (A)
                 (A) (A) (A) (A) (A) (A) (A) (A) (A) (A) (A) (A)
                 (A) (A) (A) (A) (A) (A) (A) (A) (A) (A) (A) (A)
                 (A) (A) (A) (A) (A) (A) (A) (A) (A) (A) (A) (A)
                 (A) (A) (A) (A) (A) (A) (A) (A) (A) (A) (A) (A)
                 (A) (A) (A) (A) (A) (A) (A) (A) (A) (A) (A) (A)
                 (A) (A) (A) (A) (A) (A) (A) (A) (A) (A) (A) (A)
                 (A) (A) (A) (A) (A) (A) (A) (A) (A) (A) (A) (A)
                 (A) (A) (A) (A) (A) (A) (A) (A) (A) (A) (A) (A)
                 (A) (A) (A) (A) (A) (A) (A) (A) (A) (A) (A) (A)
                 (A) (A) (A) (A) (A) (A) (A) (A) (A) (A) (A) (A)
                 (A) (A) (A) (A) (A) (A) (A) (A) (A) (A) (A) (A)
                 (A) (A) (A) (A) (A) (A) (A) (A) (A) (A) (A) (A)
                 (A) (A) (A) (A) (A) (A) (A) (A) (A) (A) (A) (A)
                 (A) (A) (A) (A) (A) (A) (A) (A) (A) (A) (A) (A)
                 (A) (A) (A) (A) (A) (A) (A) (A) (A) (A) (A) (A)
                 (A) (A) (A) (A) (A) (A) (A) (A) (A) (A) (A) (A)
                 (A) (A) (A) (A) (A) (A) (A) (A) (A) (A) (A) (A)
                 (A) (A) (A) (A) (A) (A) (A) (A) (A) (A) (A) (A)
                 (A) (A) (A) (A) (A) (A) (A) (A) (A) (A) (A) (A)
                 (A) (A) (A) (A) (A) (A) (A) (A) (A) (A) (A) (A)
                 (A) (A) (A) (A) (A) (A) (A) (A) (A) (A) (A) (A)
                 (A) (A) (A) (A) (A) (A) (A) (A) (A) (A) (A) (A)
                 (A) (A) (A) (A) (A) (A) (A) (A) (A) (A) (A) (A)
                 (A) (A) (A) (A) (A) (A) (A) (A) (A) (A) (A) (A)
                 (A) (A) (A) (A) (A) (A) (A) (A) (A)
 The electronic state is 1-A.
 Alpha  occ. eigenvalues --  -92.01944 -26.35072 -26.34422 -26.34339 -26.34292
 Alpha  occ. eigenvalues --  -26.34219 -26.34188 -15.60935 -11.50834 -11.50414
 Alpha  occ. eigenvalues --  -11.33172 -11.29779  -9.01428  -6.69543  -6.69460
 Alpha  occ. eigenvalues --   -6.69356  -1.75620  -1.75507  -1.65200  -1.64949
 Alpha  occ. eigenvalues --   -1.64889  -1.64816  -1.13210  -1.10017  -1.04412
 Alpha  occ. eigenvalues --   -0.96619  -0.93310  -0.88927  -0.84451  -0.84385
 Alpha  occ. eigenvalues --   -0.84264  -0.84033  -0.79344  -0.78369  -0.72487
 Alpha  occ. eigenvalues --   -0.72391  -0.72319  -0.72134  -0.67899  -0.67714
 Alpha  occ. eigenvalues --   -0.67525  -0.67262  -0.65485  -0.65432  -0.63787
 Alpha  occ. eigenvalues --   -0.61677  -0.59591  -0.58842  -0.58082  -0.52814
 Alpha  occ. eigenvalues --   -0.45783  -0.40446  -0.38659
 Alpha virt. eigenvalues --    0.04662   0.05726   0.07587   0.08290   0.08997
 Alpha virt. eigenvalues --    0.10127   0.10329   0.11056   0.11604   0.12134
 Alpha virt. eigenvalues --    0.13463   0.13732   0.14496   0.14552   0.15089
 Alpha virt. eigenvalues --    0.17198   0.17380   0.17960   0.19586   0.20869
 Alpha virt. eigenvalues --    0.21598   0.22346   0.22734   0.24799   0.27814
 Alpha virt. eigenvalues --    0.28034   0.29700   0.30905   0.32381   0.33096
 Alpha virt. eigenvalues --    0.33476   0.34597   0.35128   0.35436   0.36030
 Alpha virt. eigenvalues --    0.36863   0.37108   0.38255   0.38565   0.39238
 Alpha virt. eigenvalues --    0.39853   0.40259   0.41139   0.41438   0.41839
 Alpha virt. eigenvalues --    0.41950   0.42838   0.43797   0.43879   0.45178
 Alpha virt. eigenvalues --    0.45614   0.46009   0.46439   0.46725   0.47727
 Alpha virt. eigenvalues --    0.47936   0.48387   0.49378   0.50164   0.50796
 Alpha virt. eigenvalues --    0.52162   0.53959   0.54807   0.55650   0.56558
 Alpha virt. eigenvalues --    0.57763   0.58109   0.62473   0.65202   0.66089
 Alpha virt. eigenvalues --    0.67087   0.67965   0.70080   0.73142   0.74655
 Alpha virt. eigenvalues --    0.75416   0.76515   0.77652   0.80112   0.81739
 Alpha virt. eigenvalues --    0.82093   0.83651   0.84129   0.86431   0.87476
 Alpha virt. eigenvalues --    0.88492   0.90208   0.90869   0.92269   0.95566
 Alpha virt. eigenvalues --    0.99176   1.00374   1.03413   1.03859   1.06448
 Alpha virt. eigenvalues --    1.06948   1.08231   1.09483   1.12702   1.14052
 Alpha virt. eigenvalues --    1.16504   1.21060   1.21394   1.24551   1.25341
 Alpha virt. eigenvalues --    1.30254   1.32402   1.32893   1.34876   1.36750
 Alpha virt. eigenvalues --    1.42665   1.42822   1.43682   1.44086   1.45308
 Alpha virt. eigenvalues --    1.48697   1.49125   1.51820   1.51883   1.53194
 Alpha virt. eigenvalues --    1.58237   1.59178   1.59483   1.60277   1.61893
 Alpha virt. eigenvalues --    1.62425   1.64894   1.65490   1.66012   1.67145
 Alpha virt. eigenvalues --    1.67868   1.68409   1.69606   1.71725   1.73675
 Alpha virt. eigenvalues --    1.74411   1.76263   1.76497   1.78509   1.80358
 Alpha virt. eigenvalues --    1.85439   1.87009   1.91791   1.94829   1.95390
 Alpha virt. eigenvalues --    1.96882   2.00455   2.02724   2.03904   2.05684
 Alpha virt. eigenvalues --    2.09397   2.10411   2.13059   2.18523   2.19422
 Alpha virt. eigenvalues --    2.20980   2.21220   2.23783   2.24712   2.27343
 Alpha virt. eigenvalues --    2.27842   2.28434   2.29506   2.30257   2.30679
 Alpha virt. eigenvalues --    2.32762   2.33385   2.34207   2.35609   2.36177
 Alpha virt. eigenvalues --    2.39430   2.39614   2.41656   2.42645   2.43186
 Alpha virt. eigenvalues --    2.43647   2.44680   2.45902   2.48444   2.48588
 Alpha virt. eigenvalues --    2.49410   2.51440   2.56536   2.61730   2.64400
 Alpha virt. eigenvalues --    2.65788   2.66480   2.67938   2.70525   2.72422
 Alpha virt. eigenvalues --    2.73572   2.77175   2.79483   2.84408   2.85580
 Alpha virt. eigenvalues --    2.88873   2.90113   2.91737   2.93704   2.93919
 Alpha virt. eigenvalues --    2.95718   2.97101   3.01526   3.02726   3.03804
 Alpha virt. eigenvalues --    3.07149   3.07496   3.08301   3.11092   3.12178
 Alpha virt. eigenvalues --    3.14685   3.18348   3.29580   3.36892   3.39353
 Alpha virt. eigenvalues --    3.48356   3.53889   3.54662   3.57839   3.58438
 Alpha virt. eigenvalues --    3.62705   3.64342   3.66647   3.67827   3.68983
 Alpha virt. eigenvalues --    3.71673   3.71803   3.73651   3.74393   3.74875
 Alpha virt. eigenvalues --    3.75318   3.75973   3.78180   3.81665   3.82368
 Alpha virt. eigenvalues --    3.82490   3.84719   3.86386   3.87296   3.87865
 Alpha virt. eigenvalues --    3.90100   3.92131   3.93507   4.03563   4.07376
 Alpha virt. eigenvalues --    4.08189   4.09432   4.10608   4.12849   4.15159
 Alpha virt. eigenvalues --    4.16029   4.17471   4.21350   4.22035   4.25239
 Alpha virt. eigenvalues --    4.30193   4.34775   4.36171   4.37891   4.39183
 Alpha virt. eigenvalues --    4.42455   4.43860   4.52358   4.54961   4.56472
 Alpha virt. eigenvalues --    4.57526   4.58655   4.60925   4.62678   4.68982
 Alpha virt. eigenvalues --    4.69454   4.70275   4.70586   4.73033   4.74161
 Alpha virt. eigenvalues --    4.83344   5.12193   5.14571   5.16756   5.40824
 Alpha virt. eigenvalues --    5.41892   5.43021   5.50164   5.64221   5.68690
 Alpha virt. eigenvalues --    5.97148   6.04337   6.93763   6.94009   6.94357
 Alpha virt. eigenvalues --    6.95330   6.96925   6.98825   7.01098   7.01692
 Alpha virt. eigenvalues --    7.02049   7.02639   7.04108   7.04862   7.09934
 Alpha virt. eigenvalues --    7.10107   7.10558   7.10791   7.10805   7.10929
 Alpha virt. eigenvalues --    7.11376   7.11428   7.11624   7.11742   7.13585
 Alpha virt. eigenvalues --    7.13743   7.14662   7.14713   7.14798   7.14885
 Alpha virt. eigenvalues --    7.14959   7.15306   7.24926   7.25254   7.25647
 Alpha virt. eigenvalues --    7.25793   7.26163   7.26223   7.36001   7.36062
 Alpha virt. eigenvalues --    7.37076   7.37166   7.37228   7.37458   7.58961
 Alpha virt. eigenvalues --    7.59141   7.59281   7.59444   7.62030   7.62484
 Alpha virt. eigenvalues --    7.81017   7.81233   7.84171   7.84366   7.87231
 Alpha virt. eigenvalues --    7.87538   7.98780   7.98822   8.44482   8.45179
 Alpha virt. eigenvalues --    8.46657   8.46913   8.71973   9.68308   9.68624
 Alpha virt. eigenvalues --    9.68937   9.69160   9.70557   9.70646   9.81411
 Alpha virt. eigenvalues --    9.81974   9.82137   9.82407   9.85379   9.85521
 Alpha virt. eigenvalues --   10.04155  10.04268  10.13010  10.13443  10.13867
 Alpha virt. eigenvalues --   10.14126  10.24489  10.24694  10.38291  10.38749
 Alpha virt. eigenvalues --   10.55082  10.55280  10.57460  10.58015  10.75344
 Alpha virt. eigenvalues --   10.75831  10.76746  10.77471  18.43913  18.63074
 Alpha virt. eigenvalues --   18.82125  25.32993  25.38658  25.80471  25.81412
 Alpha virt. eigenvalues --   36.97961  68.81725  68.82153  68.82697  68.82979
 Alpha virt. eigenvalues --   68.85661  68.86117 192.52233
          Condensed to atoms (all electrons):
              1          2          3          4          5          6
     1  C    4.637510   0.222120   0.215094   0.209644   0.213661  -0.045762
     2  F    0.222120   9.049983   0.018879   0.024035  -0.041717  -0.005422
     3  F    0.215094   0.018879   9.118501   0.022372  -0.104116   0.004118
     4  F    0.209644   0.024035   0.022372   9.059606  -0.038685   0.002179
     5  C    0.213661  -0.041717  -0.104116  -0.038685   5.430533   0.423458
     6  H   -0.045762  -0.005422   0.004118   0.002179   0.423458   0.493462
     7  H   -0.052860   0.003899   0.004840  -0.006292   0.416822  -0.017859
     8  S    0.035385  -0.025397   0.004640  -0.016602  -0.164498  -0.039738
     9  N    0.003981   0.004795  -0.000153  -0.002856  -0.018556   0.000491
    10  C    0.001440  -0.003050   0.000214   0.000051   0.052694   0.007562
    11  H    0.001722   0.000007   0.000001  -0.000011   0.002899   0.000557
    12  H    0.000040   0.000011  -0.000002   0.000002  -0.000120  -0.000375
    13  C    0.000001   0.000254  -0.000186   0.000086  -0.027906  -0.003551
    14  F    0.000411   0.000001   0.000000   0.000000  -0.000461  -0.000006
    15  F    0.000670   0.000004   0.000001  -0.000001  -0.004446   0.000133
    16  F    0.000006   0.000000   0.000000   0.000000   0.000604   0.000006
    17  H   -0.003887  -0.000232  -0.000060   0.000203  -0.003717  -0.000163
              7          8          9         10         11         12
     1  C   -0.052860   0.035385   0.003981   0.001440   0.001722   0.000040
     2  F    0.003899  -0.025397   0.004795  -0.003050   0.000007   0.000011
     3  F    0.004840   0.004640  -0.000153   0.000214   0.000001  -0.000002
     4  F   -0.006292  -0.016602  -0.002856   0.000051  -0.000011   0.000002
     5  C    0.416822  -0.164498  -0.018556   0.052694   0.002899  -0.000120
     6  H   -0.017859  -0.039738   0.000491   0.007562   0.000557  -0.000375
     7  H    0.490368  -0.028213   0.003320  -0.001892  -0.000054   0.000003
     8  S   -0.028213  16.126861   0.169726  -0.233539  -0.012410   0.005079
     9  N    0.003320   0.169726   6.917077   0.188929  -0.016688  -0.024885
    10  C   -0.001892  -0.233539   0.188929   5.533493   0.440278   0.407651
    11  H   -0.000054  -0.012410  -0.016688   0.440278   0.469687  -0.023210
    12  H    0.000003   0.005079  -0.024885   0.407651  -0.023210   0.478209
    13  C    0.000670   0.110272  -0.028419   0.027728  -0.074680  -0.038121
    14  F   -0.000001  -0.003959   0.007702  -0.059519   0.003853  -0.003400
    15  F    0.000021  -0.013082   0.013722  -0.049985  -0.002291   0.003821
    16  F    0.000000  -0.002554   0.001970  -0.089475   0.005262   0.003117
    17  H   -0.000084  -0.000220   0.333651  -0.013075   0.000792   0.000005
             13         14         15         16         17
     1  C    0.000001   0.000411   0.000670   0.000006  -0.003887
     2  F    0.000254   0.000001   0.000004   0.000000  -0.000232
     3  F   -0.000186   0.000000   0.000001   0.000000  -0.000060
     4  F    0.000086   0.000000  -0.000001   0.000000   0.000203
     5  C   -0.027906  -0.000461  -0.004446   0.000604  -0.003717
     6  H   -0.003551  -0.000006   0.000133   0.000006  -0.000163
     7  H    0.000670  -0.000001   0.000021   0.000000  -0.000084
     8  S    0.110272  -0.003959  -0.013082  -0.002554  -0.000220
     9  N   -0.028419   0.007702   0.013722   0.001970   0.333651
    10  C    0.027728  -0.059519  -0.049985  -0.089475  -0.013075
    11  H   -0.074680   0.003853  -0.002291   0.005262   0.000792
    12  H   -0.038121  -0.003400   0.003821   0.003117   0.000005
    13  C    4.675250   0.210990   0.206358   0.221110  -0.006200
    14  F    0.210990   9.068550   0.022393   0.023681   0.000108
    15  F    0.206358   0.022393   9.038760   0.022615   0.000013
    16  F    0.221110   0.023681   0.022615   9.094150  -0.000066
    17  H   -0.006200   0.000108   0.000013  -0.000066   0.357741
 Mulliken atomic charges:
              1
     1  C    0.560824
     2  F   -0.248169
     3  F   -0.284144
     4  F   -0.253729
     5  C   -0.136451
     6  H    0.180910
     7  H    0.187311
     8  S    0.088246
     9  N   -0.553808
    10  C   -0.209505
    11  H    0.204284
    12  H    0.192175
    13  C    0.726343
    14  F   -0.270343
    15  F   -0.238708
    16  F   -0.280427
    17  H    0.335192
 Sum of Mulliken atomic charges =   0.00000
 Mulliken charges with hydrogens summed into heavy atoms:
              1
     1  C    0.560824
     2  F   -0.248169
     3  F   -0.284144
     4  F   -0.253729
     5  C    0.231769
     8  S    0.088246
     9  N   -0.218616
    10  C    0.186954
    13  C    0.726343
    14  F   -0.270343
    15  F   -0.238708
    16  F   -0.280427
 Sum of Mulliken charges with hydrogens summed into heavy atoms =   0.00000
 Electronic spatial extent (au):  <R**2>=           3608.3064
 Charge=              0.0000 electrons
 Dipole moment (field-independent basis, Debye):
    X=              0.0570    Y=             -1.0390    Z=              2.6568  Tot=              2.8533
 Quadrupole moment (field-independent basis, Debye-Ang):
   XX=            -88.5556   YY=            -71.0795   ZZ=            -71.8685
   XY=             -5.6625   XZ=             -0.4583   YZ=              1.9165
 Traceless Quadrupole moment (field-independent basis, Debye-Ang):
   XX=            -11.3878   YY=              6.0884   ZZ=              5.2994
   XY=             -5.6625   XZ=             -0.4583   YZ=              1.9165
 Octapole moment (field-independent basis, Debye-Ang**2):
  XXX=              3.1931  YYY=             -7.2073  ZZZ=              0.1102  XYY=              3.2073
  XXY=             -0.2118  XXZ=              4.0589  XZZ=             -0.8811  YZZ=             -4.0511
  YYZ=             -0.6720  XYZ=             -7.1473
 Hexadecapole moment (field-independent basis, Debye-Ang**3):
 XXXX=          -3496.8829 YYYY=           -309.1568 ZZZZ=           -262.7333 XXXY=             11.1401
 XXXZ=              6.7125 YYYX=             -0.4261 YYYZ=              8.8864 ZZZX=              3.0073
 ZZZY=              8.7135 XXYY=           -584.9840 XXZZ=           -603.6925 YYZZ=            -90.4220
 XXYZ=              4.7611 YYXZ=             -3.7270 ZZXY=              6.4904
 N-N= 8.849491832055D+02 E-N=-4.631926050772D+03  KE= 1.202182975389D+03
 Calling FoFJK, ICntrl=      2127 FMM=F ISym2X=0 I1Cent= 0 IOpClX= 0 NMat=1 NMatS=1 NMatT=0.
 ***** Axes restored to original set *****
 -------------------------------------------------------------------
 Center     Atomic                   Forces (Hartrees/Bohr)
 Number     Number              X              Y              Z
 -------------------------------------------------------------------
      1        6           0.001356222    0.000548568   -0.000014428
      2        9           0.000037737   -0.000315767    0.000109573
      3        9          -0.000884387   -0.000299514    0.000306508
      4        9          -0.000612455   -0.000112583    0.000002823
      5        6           0.004294217   -0.006182203   -0.005479292
      6        1           0.000714169   -0.000165830   -0.000018476
      7        1           0.001382577    0.001484485   -0.000629764
      8       16           0.035848364   -0.082595609   -0.007178101
      9        7           0.037157089    0.119944269    0.088912069
     10        6          -0.051114002   -0.036295579   -0.050488922
     11        1          -0.011769579    0.000552758   -0.009095555
     12        1          -0.004193942   -0.000159258   -0.004110946
     13        6          -0.008275138    0.000822959   -0.017276460
     14        9           0.000094689    0.000314210    0.001321974
     15        9           0.000927109   -0.000711611    0.001128595
     16        9          -0.004175921   -0.001829430    0.001707279
     17        1          -0.000786750    0.005000135    0.000803122
 -------------------------------------------------------------------
 Cartesian Forces:  Max     0.119944269 RMS     0.027683060

 GradGradGradGradGradGradGradGradGradGradGradGradGradGradGradGradGradGrad
 Berny optimization.
 Internal  Forces:  Max     0.114106655 RMS     0.018797238
 Search for a local minimum.
 Step number   1 out of a maximum of   83
 All quantities printed in internal units (Hartrees-Bohrs-Radians)
 Mixed Optimization -- RFO/linear search
 Second derivative matrix not updated -- first step.
     Eigenvalues ---    0.00230   0.00230   0.00230   0.00230   0.00616
     Eigenvalues ---    0.00616   0.03952   0.04598   0.05531   0.06056
     Eigenvalues ---    0.08291   0.08291   0.08819   0.08819   0.09497
     Eigenvalues ---    0.11470   0.12984   0.13368   0.13584   0.13985
     Eigenvalues ---    0.16000   0.22000   0.22072   0.22141   0.25000
     Eigenvalues ---    0.25000   0.25000   0.25000   0.25000   0.25000
     Eigenvalues ---    0.25000   0.25278   0.31219   0.31219   0.35713
     Eigenvalues ---    0.35713   0.36097   0.36098   0.47688   0.62393
     Eigenvalues ---    0.62393   0.63930   0.63930   0.64203   0.64203
     Eigenvalues --- 1000.000001000.000001000.000001000.000001000.00000
     Eigenvalues --- 1000.000001000.000001000.000001000.000001000.00000
     Eigenvalues --- 1000.000001000.000001000.000001000.000001000.00000
     Eigenvalues --- 1000.000001000.000001000.000001000.000001000.00000
     Eigenvalues --- 1000.000001000.000001000.000001000.000001000.00000
     Eigenvalues --- 1000.000001000.000001000.00000
 RFO step:  Lambda=-1.04690379D-01 EMin= 2.30000000D-03
 Linear search not attempted -- first point.
 Maximum step size (   0.300) exceeded in Quadratic search.
    -- Step size scaled by   0.458
 Iteration  1 RMS(Cart)=  0.07150974 RMS(Int)=  0.00248349
 Iteration  2 RMS(Cart)=  0.00534244 RMS(Int)=  0.00007898
 Iteration  3 RMS(Cart)=  0.00000808 RMS(Int)=  0.00007879
 Iteration  4 RMS(Cart)=  0.00000000 RMS(Int)=  0.00007879
 Variable       Old X    -DE/DX   Delta X   Delta X   Delta X     New X
                                 (Linear)    (Quad)   (Total)
    R1        2.47762   0.00025   0.00000   0.00016   0.00016   2.47777
    R2        2.49095   0.00086   0.00000   0.00054   0.00054   2.49149
    R3        2.47960   0.00019   0.00000   0.00012   0.00012   2.47971
    R4        2.85596   0.00001   0.00000   0.00001   0.00001   2.85597
    R5        2.03929   0.00031   0.00000   0.00030   0.00030   2.03960
    R6        2.04532   0.00076   0.00000   0.00075   0.00075   2.04607
    R7        3.42206  -0.00764   0.00000  -0.00978  -0.00978   3.41227
    R8        3.87158  -0.09695   0.00000  -0.18612  -0.18612   3.68546
    R9        3.42206  -0.11411   0.00000  -0.21709  -0.21709   3.20497
   R10        1.88973  -0.00440   0.00000  -0.00346  -0.00346   1.88627
   R11        2.03929  -0.00292   0.00000  -0.00287  -0.00287   2.03642
   R12        2.04532  -0.00236   0.00000  -0.00234  -0.00234   2.04298
   R13        2.85596  -0.00498   0.00000  -0.00546  -0.00546   2.85049
   R14        2.47960  -0.00110   0.00000  -0.00067  -0.00067   2.47892
   R15        2.47762  -0.00124   0.00000  -0.00076  -0.00076   2.47686
   R16        2.49095  -0.00183   0.00000  -0.00115  -0.00115   2.48980
    A1        1.87491  -0.00034   0.00000  -0.00059  -0.00059   1.87432
    A2        1.88062  -0.00014   0.00000  -0.00006  -0.00006   1.88056
    A3        1.96557  -0.00034   0.00000  -0.00044  -0.00044   1.96513
    A4        1.87454  -0.00072   0.00000  -0.00091  -0.00091   1.87364
    A5        1.91173   0.00063   0.00000   0.00074   0.00074   1.91247
    A6        1.95263   0.00083   0.00000   0.00116   0.00116   1.95379
    A7        1.89791  -0.00035   0.00000  -0.00012  -0.00012   1.89779
    A8        1.87442   0.00122   0.00000   0.00272   0.00272   1.87714
    A9        2.00041   0.00191   0.00000   0.00262   0.00262   2.00303
   A10        1.89698   0.00017   0.00000   0.00033   0.00033   1.89731
   A11        1.93302  -0.00090   0.00000  -0.00161  -0.00161   1.93141
   A12        1.85760  -0.00206   0.00000  -0.00394  -0.00394   1.85366
   A13        1.81178  -0.01840   0.00000  -0.02373  -0.02373   1.78804
   A14        1.81178   0.03740   0.00000   0.05271   0.05271   1.86449
   A15        2.23570  -0.02111   0.00000  -0.03052  -0.03052   2.20518
   A16        2.23570  -0.01629   0.00000  -0.02219  -0.02219   2.21351
   A17        1.93301  -0.00555   0.00000  -0.01747  -0.01736   1.91565
   A18        1.85760   0.00312   0.00000   0.00249   0.00262   1.86022
   A19        2.00041  -0.01580   0.00000  -0.02409  -0.02408   1.97633
   A20        1.89698   0.00053   0.00000   0.00738   0.00710   1.90409
   A21        1.89791   0.01230   0.00000   0.02112   0.02078   1.91869
   A22        1.87442   0.00610   0.00000   0.01242   0.01229   1.88671
   A23        1.95263   0.00160   0.00000   0.00262   0.00261   1.95524
   A24        1.96557   0.00239   0.00000   0.00356   0.00355   1.96912
   A25        1.91173  -0.00857   0.00000  -0.01208  -0.01208   1.89965
   A26        1.88062  -0.00016   0.00000   0.00158   0.00157   1.88219
   A27        1.87455   0.00270   0.00000   0.00259   0.00259   1.87714
   A28        1.87491   0.00225   0.00000   0.00188   0.00189   1.87679
    D1       -1.10930   0.00036   0.00000   0.00094   0.00094  -1.10836
    D2        3.12408  -0.00031   0.00000  -0.00087  -0.00086   3.12321
    D3        1.06442   0.00029   0.00000   0.00063   0.00063   1.06505
    D4        0.97591   0.00015   0.00000   0.00042   0.00042   0.97633
    D5       -1.07389  -0.00053   0.00000  -0.00139  -0.00139  -1.07529
    D6       -3.13355   0.00007   0.00000   0.00011   0.00010  -3.13345
    D7        3.05245   0.00018   0.00000   0.00050   0.00050   3.05295
    D8        1.00265  -0.00050   0.00000  -0.00131  -0.00131   1.00133
    D9       -1.05701   0.00010   0.00000   0.00018   0.00018  -1.05683
   D10       -1.49308   0.00061   0.00000   0.00181   0.00180  -1.49127
   D11        0.66196   0.00087   0.00000   0.00234   0.00234   0.66430
   D12        2.72094  -0.00062   0.00000  -0.00043  -0.00042   2.72052
   D13       -1.64619  -0.00206   0.00000  -0.00883  -0.00883  -1.65502
   D14        1.49540  -0.00150   0.00000  -0.00640  -0.00641   1.48899
   D15        0.66189  -0.00008   0.00000  -0.00274  -0.00258   0.65931
   D16        2.72087  -0.00059   0.00000  -0.00181  -0.00185   2.71902
   D17       -1.49315  -0.00010   0.00000   0.00127   0.00115  -1.49199
   D18       -2.47970  -0.00064   0.00000  -0.00517  -0.00502  -2.48472
   D19       -0.42072  -0.00116   0.00000  -0.00424  -0.00428  -0.42500
   D20        1.64845  -0.00067   0.00000  -0.00116  -0.00128   1.64717
   D21       -1.05700  -0.00395   0.00000  -0.01048  -0.01053  -1.06753
   D22        1.06443  -0.00125   0.00000  -0.00390  -0.00393   1.06049
   D23       -3.13355  -0.00270   0.00000  -0.00744  -0.00748  -3.14103
   D24        3.05247   0.00514   0.00000   0.01340   0.01356   3.06603
   D25       -1.10929   0.00784   0.00000   0.01998   0.02015  -1.08913
   D26        0.97593   0.00639   0.00000   0.01644   0.01661   0.99253
   D27        1.00266  -0.00532   0.00000  -0.01327  -0.01339   0.98926
   D28        3.12409  -0.00262   0.00000  -0.00668  -0.00680   3.11729
   D29       -1.07389  -0.00406   0.00000  -0.01022  -0.01035  -1.08424
         Item               Value     Threshold  Converged?
 Maximum Force            0.114107     0.000450     NO 
 RMS     Force            0.018797     0.000300     NO 
 Maximum Displacement     0.203522     0.001800     NO 
 RMS     Displacement     0.074997     0.001200     NO 
 Predicted change in Energy=-4.165948D-02
 GradGradGradGradGradGradGradGradGradGradGradGradGradGradGradGradGradGrad

                          Input orientation:                          
 ---------------------------------------------------------------------
 Center     Atomic      Atomic             Coordinates (Angstroms)
 Number     Number       Type             X           Y           Z
 ---------------------------------------------------------------------
      1          6           0       -3.011330   -0.078463    0.139691
      2          9           0       -2.735922   -1.266936   -0.340808
      3          9           0       -3.926843   -0.234246    1.075564
      4          9           0       -3.553628    0.627068   -0.824687
      5          6           0       -1.798416    0.605843    0.726744
      6          1           0       -1.448607    0.028807    1.569102
      7          1           0       -2.112061    1.580260    1.079525
      8         16           0       -0.456145    0.901842   -0.444253
      9          7           0        0.521522   -0.785038   -0.398200
     10          6           0        1.779280   -0.593089    0.723231
     11          1           0        1.436473   -0.003809    1.557805
     12          1           0        2.035980   -1.583831    1.071529
     13          6           0        3.017401    0.029820    0.127953
     14          9           0        3.522902   -0.703740   -0.834932
     15          9           0        2.801904    1.230090   -0.352504
     16          9           0        3.933847    0.137403    1.068422
     17          1           0        0.318257   -1.601474   -0.935282
 ---------------------------------------------------------------------
                    Distance matrix (angstroms):
                    1          2          3          4          5
     1  C    0.000000
     2  F    1.311181   0.000000
     3  F    1.318442   2.119163   0.000000
     4  F    1.312207   2.118970   2.119459   0.000000
     5  C    1.511312   2.350720   2.314654   2.342681   0.000000
     6  H    2.120572   2.642704   2.540557   3.243340   1.079308
     7  H    2.107921   3.242386   2.566297   2.571519   1.082735
     8  S    2.798385   3.148282   3.955538   3.132830   1.805697
     9  N    3.642749   3.293397   4.718400   4.333910   2.929533
    10  C    4.853380   4.687568   5.728241   5.685485   3.773243
    11  H    4.669001   4.754903   5.389880   5.565553   3.395121
    12  H    5.348812   4.986598   6.113644   6.302969   4.429011
    13  C    6.029715   5.916252   7.013574   6.666532   4.886968
    14  F    6.636042   6.303509   7.705136   7.200585   5.698269
    15  F    5.978985   6.074767   7.032758   6.401513   4.766278
    16  F    7.010323   6.960166   7.869474   7.738599   5.761512
    17  H    3.815924   3.129429   4.892207   4.468794   3.480644
                    6          7          8          9         10
     6  H    0.000000
     7  H    1.756947   0.000000
     8  S    2.408479   2.350363   0.000000
     9  N    2.900695   3.835891   1.950261   0.000000
    10  C    3.394335   4.471345   2.931717   1.695997   0.000000
    11  H    2.885287   3.915369   2.900077   2.296391   1.077628
    12  H    3.871760   5.217066   3.832343   2.256492   1.081100
    13  C    4.692776   5.442494   3.626757   2.677731   1.508415
    14  F    5.570630   6.374529   4.308520   3.034078   2.341012
    15  F    4.816897   5.130339   3.275828   3.043513   2.350946
    16  F    5.406782   6.215703   4.705803   3.826988   2.301072
    17  H    3.471536   4.482111   2.665970   0.998169   2.429423
                   11         12         13         14         15
    11  H    0.000000
    12  H    1.758506   0.000000
    13  C    2.131888   2.111255   0.000000
    14  F    3.250890   2.572955   1.311789   0.000000
    15  F    2.652582   3.245407   1.310697   2.119499   0.000000
    16  F    2.548787   2.562139   1.317546   2.121121   2.119974
    17  H    3.165189   2.641623   3.328208   3.329527   3.811284
                   16         17
    16  F    0.000000
    17  H    4.484530   0.000000
 Stoichiometry    C4H5F6NS
 Framework group  C1[X(C4H5F6NS)]
 Deg. of freedom    45
 Full point group                 C1      NOp   1
 Largest Abelian subgroup         C1      NOp   1
 Largest concise Abelian subgroup C1      NOp   1
                         Standard orientation:                         
 ---------------------------------------------------------------------
 Center     Atomic      Atomic             Coordinates (Angstroms)
 Number     Number       Type             X           Y           Z
 ---------------------------------------------------------------------
      1          6           0       -2.982781   -0.129735    0.084746
      2          9           0       -2.716662   -1.167156   -0.671650
      3          9           0       -3.899072   -0.502314    0.956460
      4          9           0       -3.520068    0.793594   -0.677272
      5          6           0       -1.764431    0.381886    0.818184
      6          1           0       -1.418695   -0.385670    1.493632
      7          1           0       -2.070474    1.243139    1.398612
      8         16           0       -0.420420    0.944657   -0.248335
      9          7           0        0.544346   -0.709639   -0.617185
     10          6           0        1.803996   -0.806128    0.514354
     11          1           0        1.466046   -0.435641    1.468194
     12          1           0        2.053259   -1.853743    0.609992
     13          6           0        3.046596   -0.065941    0.086119
     14          9           0        3.546079   -0.546253   -1.027706
     15          9           0        2.840081    1.216795   -0.086694
     16          9           0        3.964225   -0.197627    1.022359
     17          1           0        0.334625   -1.368966   -1.336662
 ---------------------------------------------------------------------
 Rotational constants (GHZ):      2.1818396      0.2848314      0.2804194
 Standard basis: 6-311+G(2df,p) (5D, 7F)
 There are   446 symmetry adapted basis functions of A   symmetry.
 Integral buffers will be    131072 words long.
 Raffenetti 1 integral format.
 Two-electron integral symmetry is turned on.
   446 basis functions,   678 primitive gaussians,   506 cartesian basis functions
    53 alpha electrons       53 beta electrons
       nuclear repulsion energy       896.2503155644 Hartrees.
 NAtoms=   17 NActive=   17 NUniq=   17 SFac= 7.50D-01 NAtFMM=   80 NAOKFM=F Big=F
 One-electron integrals computed using PRISM.
 NBasis=   446 RedAO= T  NBF=   446
 NBsUse=   446 1.00D-06 NBFU=   446
 Initial guess read from the read-write file.
 B after Tr=     0.000000    0.000000    0.000000
         Rot=    1.000000    0.000000    0.000000    0.000000 Ang=   0.00 deg.
 Initial guess orbital symmetries:
       Occupied  (A) (A) (A) (A) (A) (A) (A) (A) (A) (A) (A) (A)
                 (A) (A) (A) (A) (A) (A) (A) (A) (A) (A) (A) (A)
                 (A) (A) (A) (A) (A) (A) (A) (A) (A) (A) (A) (A)
                 (A) (A) (A) (A) (A) (A) (A) (A) (A) (A) (A) (A)
                 (A) (A) (A) (A) (A)
       Virtual   (A) (A) (A) (A) (A) (A) (A) (A) (A) (A) (A) (A)
                 (A) (A) (A) (A) (A) (A) (A) (A) (A) (A) (A) (A)
                 (A) (A) (A) (A) (A) (A) (A) (A) (A) (A) (A) (A)
                 (A) (A) (A) (A) (A) (A) (A) (A) (A) (A) (A) (A)
                 (A) (A) (A) (A) (A) (A) (A) (A) (A) (A) (A) (A)
                 (A) (A) (A) (A) (A) (A) (A) (A) (A) (A) (A) (A)
                 (A) (A) (A) (A) (A) (A) (A) (A) (A) (A) (A) (A)
                 (A) (A) (A) (A) (A) (A) (A) (A) (A) (A) (A) (A)
                 (A) (A) (A) (A) (A) (A) (A) (A) (A) (A) (A) (A)
                 (A) (A) (A) (A) (A) (A) (A) (A) (A) (A) (A) (A)
                 (A) (A) (A) (A) (A) (A) (A) (A) (A) (A) (A) (A)
                 (A) (A) (A) (A) (A) (A) (A) (A) (A) (A) (A) (A)
                 (A) (A) (A) (A) (A) (A) (A) (A) (A) (A) (A) (A)
                 (A) (A) (A) (A) (A) (A) (A) (A) (A) (A) (A) (A)
                 (A) (A) (A) (A) (A) (A) (A) (A) (A) (A) (A) (A)
                 (A) (A) (A) (A) (A) (A) (A) (A) (A) (A) (A) (A)
                 (A) (A) (A) (A) (A) (A) (A) (A) (A) (A) (A) (A)
                 (A) (A) (A) (A) (A) (A) (A) (A) (A) (A) (A) (A)
                 (A) (A) (A) (A) (A) (A) (A) (A) (A) (A) (A) (A)
                 (A) (A) (A) (A) (A) (A) (A) (A) (A) (A) (A) (A)
                 (A) (A) (A) (A) (A) (A) (A) (A) (A) (A) (A) (A)
                 (A) (A) (A) (A) (A) (A) (A) (A) (A) (A) (A) (A)
                 (A) (A) (A) (A) (A) (A) (A) (A) (A) (A) (A) (A)
                 (A) (A) (A) (A) (A) (A) (A) (A) (A) (A) (A) (A)
                 (A) (A) (A) (A) (A) (A) (A) (A) (A) (A) (A) (A)
                 (A) (A) (A) (A) (A) (A) (A) (A) (A) (A) (A) (A)
                 (A) (A) (A) (A) (A) (A) (A) (A) (A) (A) (A) (A)
                 (A) (A) (A) (A) (A) (A) (A) (A) (A) (A) (A) (A)
                 (A) (A) (A) (A) (A) (A) (A) (A) (A) (A) (A) (A)
                 (A) (A) (A) (A) (A) (A) (A) (A) (A) (A) (A) (A)
                 (A) (A) (A) (A) (A) (A) (A) (A) (A) (A) (A) (A)
                 (A) (A) (A) (A) (A) (A) (A) (A) (A) (A) (A) (A)
                 (A) (A) (A) (A) (A) (A) (A) (A) (A)
 Harris functional with IExCor=  205 diagonalized for initial guess.
 ExpMin= 4.05D-02 ExpMax= 9.34D+04 ExpMxC= 3.17D+03 IAcc=2 IRadAn=         0 AccDes= 0.00D+00
 HarFok:  IExCor=  205 AccDes= 0.00D+00 IRadAn=         0 IDoV= 1
 ScaDFX=  1.000000  1.000000  1.000000  1.000000
 FoFCou: FMM=F IPFlag=           0 FMFlag=      100000 FMFlg1=           0
         NFxFlg=           0 DoJE=T BraDBF=F KetDBF=T FulRan=T
         Omega=  0.000000  0.000000  1.000000  0.000000  0.000000 ICntrl=     500 IOpCl=  0
         NMat0=    1 NMatS0=    1 NMatT0=    0 NMatD0=    1 NMtDS0=    0 NMtDT0=    0
         I1Cent=           4 NGrid=           0.
 Petite list used in FoFCou.
 Requested convergence on RMS density matrix=1.00D-08 within 128 cycles.
 Requested convergence on MAX density matrix=1.00D-06.
 Requested convergence on             energy=1.00D-06.
 No special actions if energy rises.
 Initial convergence to 1.0D-05 achieved.  Increase integral accuracy.
 SCF Done:  E(RHF) =  -1203.22860384     A.U. after   13 cycles
             Convg  =    0.5501D-08             -V/T =  2.0007
 Calling FoFJK, ICntrl=      2127 FMM=F ISym2X=0 I1Cent= 0 IOpClX= 0 NMat=1 NMatS=1 NMatT=0.
 ***** Axes restored to original set *****
 -------------------------------------------------------------------
 Center     Atomic                   Forces (Hartrees/Bohr)
 Number     Number              X              Y              Z
 -------------------------------------------------------------------
      1        6           0.000887130    0.001618015    0.000841085
      2        9           0.000235418   -0.000889490   -0.000301236
      3        9          -0.000709695   -0.000464345    0.000161734
      4        9          -0.000364239   -0.000242685   -0.000066130
      5        6           0.002542662   -0.002959322   -0.003937180
      6        1           0.000595544   -0.000070652   -0.000067852
      7        1           0.000184595    0.000615666   -0.000198683
      8       16           0.034032864   -0.080169874   -0.006149371
      9        7           0.032745025    0.108070644    0.078485783
     10        6          -0.058541871   -0.032764018   -0.056732481
     11        1          -0.005818666    0.001530032   -0.005807150
     12        1          -0.000498943    0.000294939   -0.001541697
     13        6          -0.006158960    0.000302484   -0.007922921
     14        9          -0.000136231    0.000333241    0.000659681
     15        9           0.000939479   -0.000758908    0.000284252
     16        9          -0.000046146   -0.000196624    0.001261132
     17        1           0.000112035    0.005750897    0.001031033
 -------------------------------------------------------------------
 Cartesian Forces:  Max     0.108070644 RMS     0.026010115

 GradGradGradGradGradGradGradGradGradGradGradGradGradGradGradGradGradGrad
 Berny optimization.
 Using GEDIIS/GDIIS optimizer.
 Internal  Forces:  Max     0.101796655 RMS     0.016910437
 Search for a local minimum.
 Step number   2 out of a maximum of   83
 All quantities printed in internal units (Hartrees-Bohrs-Radians)
 Mixed Optimization -- RFO/linear search
 Update second derivatives using D2CorX and points    1    2
 DE= -4.58D-02 DEPred=-4.17D-02 R= 1.10D+00
 SS=  1.41D+00  RLast= 3.00D-01 DXNew= 5.0454D-01 8.9999D-01
 Trust test= 1.10D+00 RLast= 3.00D-01 DXMaxT set to 5.05D-01
 Use linear search instead of GDIIS.
 Linear search step of   0.600 exceeds DXMaxT=   0.505 but not scaled.
 Quartic linear search produced a step of  2.00000.
 Iteration  1 RMS(Cart)=  0.10118988 RMS(Int)=  0.03521141
 Iteration  2 RMS(Cart)=  0.06643612 RMS(Int)=  0.00517187
 Iteration  3 RMS(Cart)=  0.00865362 RMS(Int)=  0.00046963
 Iteration  4 RMS(Cart)=  0.00000987 RMS(Int)=  0.00046957
 Iteration  5 RMS(Cart)=  0.00000002 RMS(Int)=  0.00046957
 Variable       Old X    -DE/DX   Delta X   Delta X   Delta X     New X
                                 (Linear)    (Quad)   (Total)
    R1        2.47777   0.00097   0.00031   0.00000   0.00031   2.47808
    R2        2.49149   0.00066   0.00108   0.00000   0.00108   2.49257
    R3        2.47971   0.00007   0.00023   0.00000   0.00023   2.47994
    R4        2.85597  -0.00030   0.00002   0.00000   0.00002   2.85599
    R5        2.03960   0.00018   0.00060   0.00000   0.00060   2.04020
    R6        2.04607   0.00044   0.00150   0.00000   0.00150   2.04757
    R7        3.41227  -0.00443  -0.01957   0.00000  -0.01957   3.39270
    R8        3.68546  -0.08993  -0.37225   0.00000  -0.37225   3.31321
    R9        3.20497  -0.10180  -0.43419   0.00000  -0.43419   2.77078
   R10        1.88627  -0.00528  -0.00692   0.00000  -0.00692   1.87935
   R11        2.03642  -0.00181  -0.00575   0.00000  -0.00575   2.03068
   R12        2.04298  -0.00089  -0.00468   0.00000  -0.00468   2.03830
   R13        2.85049  -0.00231  -0.01093   0.00000  -0.01093   2.83956
   R14        2.47892  -0.00072  -0.00135   0.00000  -0.00135   2.47757
   R15        2.47686  -0.00095  -0.00152   0.00000  -0.00152   2.47534
   R16        2.48980   0.00085  -0.00230   0.00000  -0.00230   2.48750
    A1        1.87432  -0.00037  -0.00118   0.00000  -0.00118   1.87314
    A2        1.88056  -0.00020  -0.00012   0.00000  -0.00012   1.88044
    A3        1.96513  -0.00041  -0.00089   0.00000  -0.00089   1.96424
    A4        1.87364  -0.00057  -0.00181   0.00000  -0.00182   1.87182
    A5        1.91247   0.00081   0.00148   0.00000   0.00147   1.91394
    A6        1.95379   0.00067   0.00231   0.00000   0.00231   1.95610
    A7        1.89779  -0.00018  -0.00024   0.00000  -0.00024   1.89755
    A8        1.87714   0.00031   0.00543   0.00000   0.00544   1.88258
    A9        2.00303   0.00107   0.00524   0.00000   0.00524   2.00828
   A10        1.89731   0.00015   0.00066   0.00000   0.00063   1.89794
   A11        1.93141  -0.00078  -0.00322   0.00000  -0.00323   1.92818
   A12        1.85366  -0.00057  -0.00788   0.00000  -0.00790   1.84576
   A13        1.78804  -0.01044  -0.04747   0.00000  -0.04747   1.74058
   A14        1.86449   0.03674   0.10542   0.00000   0.10542   1.96990
   A15        2.20518  -0.02043  -0.06104   0.00000  -0.06105   2.14413
   A16        2.21351  -0.01631  -0.04438   0.00000  -0.04439   2.16912
   A17        1.91565  -0.00289  -0.03472   0.00000  -0.03398   1.88167
   A18        1.86022   0.00350   0.00523   0.00000   0.00599   1.86621
   A19        1.97633  -0.00888  -0.04816   0.00000  -0.04799   1.92834
   A20        1.90409   0.00057   0.01420   0.00000   0.01258   1.91667
   A21        1.91869   0.00605   0.04156   0.00000   0.03945   1.95814
   A22        1.88671   0.00188   0.02458   0.00000   0.02371   1.91042
   A23        1.95524   0.00012   0.00522   0.00000   0.00516   1.96040
   A24        1.96912   0.00168   0.00710   0.00000   0.00705   1.97617
   A25        1.89965  -0.00200  -0.02417   0.00000  -0.02417   1.87548
   A26        1.88219  -0.00048   0.00314   0.00000   0.00304   1.88522
   A27        1.87714   0.00060   0.00518   0.00000   0.00516   1.88230
   A28        1.87679   0.00006   0.00377   0.00000   0.00378   1.88057
    D1       -1.10836   0.00021   0.00189   0.00000   0.00189  -1.10647
    D2        3.12321  -0.00005  -0.00173   0.00000  -0.00172   3.12149
    D3        1.06505  -0.00019   0.00126   0.00000   0.00126   1.06631
    D4        0.97633   0.00003   0.00083   0.00000   0.00083   0.97716
    D5       -1.07529  -0.00023  -0.00278   0.00000  -0.00278  -1.07807
    D6       -3.13345  -0.00037   0.00021   0.00000   0.00020  -3.13325
    D7        3.05295   0.00027   0.00099   0.00000   0.00099   3.05394
    D8        1.00133   0.00002  -0.00263   0.00000  -0.00262   0.99871
    D9       -1.05683  -0.00012   0.00037   0.00000   0.00036  -1.05647
   D10       -1.49127   0.00072   0.00361   0.00000   0.00360  -1.48768
   D11        0.66430   0.00066   0.00468   0.00000   0.00465   0.66895
   D12        2.72052   0.00010  -0.00084   0.00000  -0.00081   2.71971
   D13       -1.65502  -0.00179  -0.01765   0.00000  -0.01762  -1.67264
   D14        1.48899  -0.00112  -0.01282   0.00000  -0.01285   1.47615
   D15        0.65931  -0.00087  -0.00517   0.00000  -0.00424   0.65507
   D16        2.71902   0.00025  -0.00370   0.00000  -0.00388   2.71514
   D17       -1.49199  -0.00026   0.00230   0.00000   0.00158  -1.49041
   D18       -2.48472  -0.00155  -0.01003   0.00000  -0.00912  -2.49384
   D19       -0.42500  -0.00042  -0.00856   0.00000  -0.00876  -0.43376
   D20        1.64717  -0.00093  -0.00256   0.00000  -0.00330   1.64387
   D21       -1.06753  -0.00239  -0.02105   0.00000  -0.02131  -1.08884
   D22        1.06049  -0.00168  -0.00787   0.00000  -0.00808   1.05241
   D23       -3.14103  -0.00190  -0.01496   0.00000  -0.01521   3.12695
   D24        3.06603   0.00318   0.02712   0.00000   0.02804   3.09407
   D25       -1.08913   0.00388   0.04031   0.00000   0.04127  -1.04786
   D26        0.99253   0.00366   0.03321   0.00000   0.03414   1.02667
   D27        0.98926  -0.00211  -0.02679   0.00000  -0.02750   0.96176
   D28        3.11729  -0.00140  -0.01360   0.00000  -0.01427   3.10302
   D29       -1.08424  -0.00162  -0.02070   0.00000  -0.02140  -1.10563
         Item               Value     Threshold  Converged?
 Maximum Force            0.101797     0.000450     NO 
 RMS     Force            0.016910     0.000300     NO 
 Maximum Displacement     0.430775     0.001800     NO 
 RMS     Displacement     0.155669     0.001200     NO 
 Predicted change in Energy=-7.570641D-02
 GradGradGradGradGradGradGradGradGradGradGradGradGradGradGradGradGradGrad

                          Input orientation:                          
 ---------------------------------------------------------------------
 Center     Atomic      Atomic             Coordinates (Angstroms)
 Number     Number       Type             X           Y           Z
 ---------------------------------------------------------------------
      1          6           0       -2.864130   -0.137555    0.117746
      2          9           0       -2.536361   -1.319994   -0.344891
      3          9           0       -3.802993   -0.317802    1.026505
      4          9           0       -3.401733    0.542415   -0.867563
      5          6           0       -1.691302    0.588453    0.735389
      6          1           0       -1.347981    0.027059    1.591289
      7          1           0       -2.040067    1.557600    1.071766
      8         16           0       -0.328322    0.922615   -0.384375
      9          7           0        0.538833   -0.595870   -0.256995
     10          6           0        1.632943   -0.547156    0.717887
     11          1           0        1.306901    0.051953    1.548250
     12          1           0        1.808023   -1.560184    1.044308
     13          6           0        2.880795   -0.003662    0.081190
     14          9           0        3.312987   -0.763692   -0.895788
     15          9           0        2.735587    1.211830   -0.384975
     16          9           0        3.814347    0.031080    1.008549
     17          1           0        0.307085   -1.396583   -0.799393
 ---------------------------------------------------------------------
                    Distance matrix (angstroms):
                    1          2          3          4          5
     1  C    0.000000
     2  F    1.311346   0.000000
     3  F    1.319013   2.118837   0.000000
     4  F    1.312330   2.119109   2.118603   0.000000
     5  C    1.511323   2.350171   2.316309   2.344601   0.000000
     6  H    2.120645   2.641135   2.542636   3.244910   1.079628
     7  H    2.112531   3.245578   2.574314   2.577932   1.083528
     8  S    2.793995   3.147426   3.950007   3.134307   1.795341
     9  N    3.454076   3.160522   4.536094   4.146872   2.713107
    10  C    4.555394   4.371485   5.449519   5.389692   3.512907
    11  H    4.413588   4.498543   5.149753   5.314880   3.152427
    12  H    4.971057   4.567411   5.746941   5.934453   4.117930
    13  C    5.746602   5.591051   6.757613   6.377185   4.656463
    14  F    6.290952   5.901511   7.384524   6.840627   5.434330
    15  F    5.781903   5.848519   6.861857   6.192552   4.608813
    16  F    6.739735   6.632397   7.625347   7.473491   5.540528
    17  H    3.533115   2.880560   4.624978   4.185653   3.207722
                    6          7          8          9         10
     6  H    0.000000
     7  H    1.758250   0.000000
     8  S    2.396867   2.335300   0.000000
     9  N    2.713716   3.612999   1.753277   0.000000
    10  C    3.158870   4.248086   2.687335   1.466235   0.000000
    11  H    2.655348   3.700839   2.677134   2.066038   1.074587
    12  H    3.574757   4.952689   3.573429   2.057701   1.078624
    13  C    4.490422   5.256773   3.372413   2.439235   1.502632
    14  F    5.341859   6.157504   4.045282   2.851693   2.339526
    15  F    4.688798   5.004850   3.077529   2.847786   2.350778
    16  F    5.195116   6.050490   4.460580   3.567024   2.275382
    17  H    3.237493   4.211599   2.440218   0.994507   2.186680
                   11         12         13         14         15
    11  H    0.000000
    12  H    1.761836   0.000000
    13  C    2.152325   2.121602   0.000000
    14  F    3.265422   2.581334   1.311076   0.000000
    15  F    2.669048   3.253811   1.309892   2.120615   0.000000
    16  F    2.564956   2.561003   1.316329   2.123564   2.121274
    17  H    2.934165   2.383026   3.056082   3.073318   3.587922
                   16         17
    16  F    0.000000
    17  H    4.196160   0.000000
 Stoichiometry    C4H5F6NS
 Framework group  C1[X(C4H5F6NS)]
 Deg. of freedom    45
 Full point group                 C1      NOp   1
 Largest Abelian subgroup         C1      NOp   1
 Largest concise Abelian subgroup C1      NOp   1
                         Standard orientation:                         
 ---------------------------------------------------------------------
 Center     Atomic      Atomic             Coordinates (Angstroms)
 Number     Number       Type             X           Y           Z
 ---------------------------------------------------------------------
      1          6           0       -2.861029   -0.143021    0.044543
      2          9           0       -2.548968   -1.148456   -0.737343
      3          9           0       -3.806428   -0.561267    0.863742
      4          9           0       -3.384112    0.798874   -0.704742
      5          6           0       -1.680175    0.357400    0.844080
      6          1           0       -1.349014   -0.430821    1.503349
      7          1           0       -2.015870    1.194975    1.443921
      8         16           0       -0.307491    0.976905   -0.133264
      9          7           0        0.536298   -0.527793   -0.446125
     10          6           0        1.626763   -0.777282    0.501762
     11          1           0        1.306106   -0.435994    1.468943
     12          1           0        1.785253   -1.843957    0.524420
     13          6           0        2.885360   -0.093749    0.047210
     14          9           0        3.310386   -0.548876   -1.106537
     15          9           0        2.760373    1.206435   -0.051370
     16          9           0        3.815283   -0.340517    0.945581
     17          1           0        0.294966   -1.135980   -1.195065
 ---------------------------------------------------------------------
 Rotational constants (GHZ):      2.2347234      0.3110090      0.3051089
 Standard basis: 6-311+G(2df,p) (5D, 7F)
 There are   446 symmetry adapted basis functions of A   symmetry.
 Integral buffers will be    131072 words long.
 Raffenetti 1 integral format.
 Two-electron integral symmetry is turned on.
   446 basis functions,   678 primitive gaussians,   506 cartesian basis functions
    53 alpha electrons       53 beta electrons
       nuclear repulsion energy       922.3422278145 Hartrees.
 NAtoms=   17 NActive=   17 NUniq=   17 SFac= 7.50D-01 NAtFMM=   80 NAOKFM=F Big=F
 One-electron integrals computed using PRISM.
 NBasis=   446 RedAO= T  NBF=   446
 NBsUse=   446 1.00D-06 NBFU=   446
 Initial guess read from the read-write file.
 B after Tr=     0.000000    0.000000    0.000000
         Rot=    1.000000    0.000000    0.000000    0.000000 Ang=   0.00 deg.
 Initial guess orbital symmetries:
       Occupied  (A) (A) (A) (A) (A) (A) (A) (A) (A) (A) (A) (A)
                 (A) (A) (A) (A) (A) (A) (A) (A) (A) (A) (A) (A)
                 (A) (A) (A) (A) (A) (A) (A) (A) (A) (A) (A) (A)
                 (A) (A) (A) (A) (A) (A) (A) (A) (A) (A) (A) (A)
                 (A) (A) (A) (A) (A)
       Virtual   (A) (A) (A) (A) (A) (A) (A) (A) (A) (A) (A) (A)
                 (A) (A) (A) (A) (A) (A) (A) (A) (A) (A) (A) (A)
                 (A) (A) (A) (A) (A) (A) (A) (A) (A) (A) (A) (A)
                 (A) (A) (A) (A) (A) (A) (A) (A) (A) (A) (A) (A)
                 (A) (A) (A) (A) (A) (A) (A) (A) (A) (A) (A) (A)
                 (A) (A) (A) (A) (A) (A) (A) (A) (A) (A) (A) (A)
                 (A) (A) (A) (A) (A) (A) (A) (A) (A) (A) (A) (A)
                 (A) (A) (A) (A) (A) (A) (A) (A) (A) (A) (A) (A)
                 (A) (A) (A) (A) (A) (A) (A) (A) (A) (A) (A) (A)
                 (A) (A) (A) (A) (A) (A) (A) (A) (A) (A) (A) (A)
                 (A) (A) (A) (A) (A) (A) (A) (A) (A) (A) (A) (A)
                 (A) (A) (A) (A) (A) (A) (A) (A) (A) (A) (A) (A)
                 (A) (A) (A) (A) (A) (A) (A) (A) (A) (A) (A) (A)
                 (A) (A) (A) (A) (A) (A) (A) (A) (A) (A) (A) (A)
                 (A) (A) (A) (A) (A) (A) (A) (A) (A) (A) (A) (A)
                 (A) (A) (A) (A) (A) (A) (A) (A) (A) (A) (A) (A)
                 (A) (A) (A) (A) (A) (A) (A) (A) (A) (A) (A) (A)
                 (A) (A) (A) (A) (A) (A) (A) (A) (A) (A) (A) (A)
                 (A) (A) (A) (A) (A) (A) (A) (A) (A) (A) (A) (A)
                 (A) (A) (A) (A) (A) (A) (A) (A) (A) (A) (A) (A)
                 (A) (A) (A) (A) (A) (A) (A) (A) (A) (A) (A) (A)
                 (A) (A) (A) (A) (A) (A) (A) (A) (A) (A) (A) (A)
                 (A) (A) (A) (A) (A) (A) (A) (A) (A) (A) (A) (A)
                 (A) (A) (A) (A) (A) (A) (A) (A) (A) (A) (A) (A)
                 (A) (A) (A) (A) (A) (A) (A) (A) (A) (A) (A) (A)
                 (A) (A) (A) (A) (A) (A) (A) (A) (A) (A) (A) (A)
                 (A) (A) (A) (A) (A) (A) (A) (A) (A) (A) (A) (A)
                 (A) (A) (A) (A) (A) (A) (A) (A) (A) (A) (A) (A)
                 (A) (A) (A) (A) (A) (A) (A) (A) (A) (A) (A) (A)
                 (A) (A) (A) (A) (A) (A) (A) (A) (A) (A) (A) (A)
                 (A) (A) (A) (A) (A) (A) (A) (A) (A) (A) (A) (A)
                 (A) (A) (A) (A) (A) (A) (A) (A) (A) (A) (A) (A)
                 (A) (A) (A) (A) (A) (A) (A) (A) (A)
 Harris functional with IExCor=  205 diagonalized for initial guess.
 ExpMin= 4.05D-02 ExpMax= 9.34D+04 ExpMxC= 3.17D+03 IAcc=2 IRadAn=         0 AccDes= 0.00D+00
 HarFok:  IExCor=  205 AccDes= 0.00D+00 IRadAn=         0 IDoV= 1
 ScaDFX=  1.000000  1.000000  1.000000  1.000000
 FoFCou: FMM=F IPFlag=           0 FMFlag=      100000 FMFlg1=           0
         NFxFlg=           0 DoJE=T BraDBF=F KetDBF=T FulRan=T
         Omega=  0.000000  0.000000  1.000000  0.000000  0.000000 ICntrl=     500 IOpCl=  0
         NMat0=    1 NMatS0=    1 NMatT0=    0 NMatD0=    1 NMtDS0=    0 NMtDT0=    0
         I1Cent=           4 NGrid=           0.
 Petite list used in FoFCou.
 Requested convergence on RMS density matrix=1.00D-08 within 128 cycles.
 Requested convergence on MAX density matrix=1.00D-06.
 Requested convergence on             energy=1.00D-06.
 No special actions if energy rises.
 Initial convergence to 1.0D-05 achieved.  Increase integral accuracy.
 SCF Done:  E(RHF) =  -1203.28915550     A.U. after   13 cycles
             Convg  =    0.3383D-08             -V/T =  2.0002
 Calling FoFJK, ICntrl=      2127 FMM=F ISym2X=0 I1Cent= 0 IOpClX= 0 NMat=1 NMatS=1 NMatT=0.
 ***** Axes restored to original set *****
 -------------------------------------------------------------------
 Center     Atomic                   Forces (Hartrees/Bohr)
 Number     Number              X              Y              Z
 -------------------------------------------------------------------
      1        6          -0.000459263    0.004605371    0.002923030
      2        9           0.000886510   -0.002442851   -0.001282888
      3        9          -0.000403164   -0.000965177   -0.000190440
      4        9           0.000187051   -0.000608244   -0.000137551
      5        6          -0.003469040    0.006148509   -0.001220914
      6        1           0.000448708    0.000118027    0.000016794
      7        1          -0.002797691   -0.001354839    0.001059034
      8       16           0.011830050   -0.048483332   -0.005724146
      9        7          -0.005741540    0.055481778    0.018162118
     10        6          -0.032778017   -0.021591231   -0.034381922
     11        1           0.008233992    0.003067861    0.003949851
     12        1           0.008255750   -0.000346743    0.004461449
     13        6           0.004671304   -0.000821185    0.014224462
     14        9          -0.001089801    0.000369283   -0.000872748
     15        9           0.000841337   -0.000992508   -0.001693582
     16        9           0.009955439    0.002643139    0.000156558
     17        1           0.001428374    0.005172142    0.000550895
 -------------------------------------------------------------------
 Cartesian Forces:  Max     0.055481778 RMS     0.013530674

 GradGradGradGradGradGradGradGradGradGradGradGradGradGradGradGradGradGrad
[...]
 .3282698,-0.8424554,-6.6412968,-1.0445906,-0.1822836,2.2502489,0.40332
 33,-0.6261296,-1.174821,-1.5057726,-0.5618977,0.380619,0.8629804,-0.03
 7626,2.1954173,0.3987854,0.3425891,-2.2275886,-0.5717372,2.2416347,-1.
 9433305,0.8671146,-0.1786117,-1.7557925,0.2870968,-0.694919,0.4453878,
 -0.8480372,1.4054887,0.3759763,-1.4130243,0.9614548,-0.9230276,0.50418
 84,-0.4857253,-1.5180509,1.0957498,-3.4111555,-6.307206,-0.8395797,1.5
 910153,3.8214571,1.7187857,-2.4645938,-1.6073122,2.6976549,-2.5725523,
 1.7123481,-1.4324169,1.5210687,5.4849611,2.012095,-0.301541,-1.3809729
 ,1.4919947,-2.2129686,1.435788,-0.2295506,0.1572654,0.4512918,-0.44350
 16,1.3725245,-0.9935586,-0.4751979,-1.1708867,0.2379522,1.7807972,-2.2
 057683,1.0497551,-0.1189293,1.1694807,-0.5476158,-1.5393699,6.2186421,
 -2.3698341,2.0114898,-1.6287198,0.5021812,-0.7116724,-0.3338514,3.2857
 544,-2.7926215,5.7181528,-1.2061003,1.6810803,1.3522455,-0.183459,-0.7
 709753,1.022643,-0.8360901,1.2925034,1.267931,6.8936843,3.5991281,-0.8
 391766,-4.0079995,-0.1128436,1.7359922,4.4756413,-1.9464657,8.5978823,
 0.2810613,-2.1735903,1.6590855,-4.5229679,-0.2196673,-1.6305512,1.7695
 643,2.033544,-3.8598576,-1.5469817,-1.1746858,0.2174283,-0.3495177,-0.
 1510006,-0.1693662,-1.5810667,2.0805641,-2.7413167,-0.7250583,2.339740
 1,0.9998511,0.2254007,-1.0118152,3.6448098,0.3264847,1.3533616,1.42315
 13,0.0748078,-0.8126203,-0.3307312,2.1352486,0.8134373,-0.1834777,-0.0
 136131,-2.4181581,3.9181622,1.3321155,-3.4117666,-1.0802049,2.9637785,
 0.9320669,-2.2414138,-0.9838261,-1.095235,-2.1815147,-0.4321026,0.8282
 187,-0.0679472,0.6622656,-0.0919315,-0.1283845,1.4170181,0.1953611,1.3
 584209,0.1692862,1.8053912,2.1299912,0.8061992,-0.0896831,1.3585692,0.
 4145062,1.4715515,4.9025028,1.2249058,-1.5817851,0.8546991,0.5110548,-
 0.4623527,0.2445516,-2.825181,2.359101,-7.0530685,-1.1279488,2.6431869
 ,-1.7974516,0.1279231,-0.675469,1.9244199,0.8240536,-1.8138627,1.92139
 74,1.5064713,0.4098349,1.476886,-2.2158477,-0.6267389,1.0163739,1.5671
 014,0.5051793,-1.4244679,-0.6405688,1.693472,1.2296212,-3.2208835,-0.2
 130817,0.7324582,-0.0933913,0.9655079,0.3158325,0.7981747,-0.9585118,0
 .1327796,-1.3228628,0.2814345,0.2532715,-0.5160404,0.6671863,-2.347244
 6,0.3432758,-1.8319988,-1.330707,-0.7069254,0.4692898,-0.965922,0.8918
 202,-1.771185,-3.7200756,-0.1449467,1.5337585,-0.2039678,-0.5352956,0.
 0510116,-0.1605834,0.3494352,0.3848761,4.3179089,-0.0134328,-1.1657048
 ,0.6861665,-0.2181526,-0.3053558,-0.6516278,0.1201888,1.3283631,-1.128
 0749,6.8375144,-0.3194294,0.0345654,2.1722361,0.055152,0.585032,-0.096
 6855,1.3238071,-0.2248383,-0.0502015,0.6896463,-0.0957478,1.9222436,-0
 .1193416,0.2685412,2.2147063,-0.0822096,2.0270881,0.0976726,-0.8138285
 ,0.2197134,-0.5264902,0.0323446,-0.2430478,-1.4098388,0.8117861,-3.354
 7715,0.016705,-1.8746223,-1.8646188,-1.4900335,0.8065993,-3.3090646,-0
 .0491862,-2.3033439,-2.9305936\HyperPolar=0.2370148,27.4571151,-0.9380
 597,57.7003565,18.1382099,-0.9615221,18.6263725,-1.4392707,23.0322545,
 4.1466297\PG=C01 [X(C4H5F6N1S1)]\NImag=0\\0.68020813,0.02571451,0.6789
 1878,0.03504033,0.02200569,0.67576158,-0.10892774,0.05219766,0.0170126
 2,0.14247620,0.04375707,-0.29930368,-0.08179347,-0.12563692,0.40742271
 ,0.01303774,-0.08098138,-0.12133214,-0.04423849,0.10218531,0.12871681,
 -0.26380485,-0.05160914,0.09327897,-0.03854593,0.03049020,0.04153091,0
 .33025604,-0.04966063,-0.10419656,0.02324081,0.05107932,0.00057700,-0.
 03631402,0.04695792,0.10363650,0.09939662,0.02639830,-0.15030541,0.045
 86791,-0.02336118,-0.02046840,-0.18461849,-0.04055103,0.23256230,-0.13
 737690,0.03177428,-0.08651259,-0.00507516,0.03859808,-0.01755189,0.016
 74685,-0.01950536,0.04191284,0.13706648,0.03746301,-0.13164557,0.08145
 583,0.04489204,-0.06612047,0.04620245,-0.00898167,-0.00354463,0.039646
 67,-0.06643852,0.18834004,-0.09286606,0.07540601,-0.26576170,-0.009146
 69,0.02427308,0.01329066,0.01943870,0.03937607,-0.07140319,0.10383840,
 -0.15946833,0.35895897,-0.15632042,-0.05086462,-0.05209902,0.01269321,
 0.02014121,0.01194517,-0.04183220,-0.02672154,-0.00331240,-0.00712518,
 -0.00473146,-0.01681255,0.50056858,-0.05529870,-0.13209298,-0.03642104
 ,-0.01872300,-0.04118536,-0.03015051,-0.01263601,0.00211174,-0.0025068
 3,0.02049602,0.00970689,0.02497900,-0.05313556,0.64308169,-0.06402689,
 -0.04019643,-0.12177694,-0.00575323,-0.01496312,-0.00062626,0.03301367
 ,0.01545223,0.00592111,-0.03653670,-0.00754338,-0.03477441,0.04824506,
 -0.03626466,0.57139938,-0.00226759,0.01775557,-0.01974429,0.00061820,-
 0.00090220,0.00144914,0.00088540,-0.00031515,0.00138255,-0.00528986,-0
 .00253079,-0.00647665,-0.06672595,0.02744926,-0.05673664,0.07711364,-0
 .00404668,0.01134372,-0.01710189,0.00073655,0.00037667,0.00136830,0.00
 172847,0.00026525,-0.00004987,-0.00549697,-0.00007263,-0.00550829,0.03
 148365,-0.12574123,0.12170586,-0.03154036,0.12737485,-0.00216362,0.014
 10849,-0.01756556,0.00080469,-0.00106691,0.00171895,0.00111983,-0.0007
 9631,0.00239195,-0.00385508,-0.00134667,-0.00265788,-0.06798786,0.1152
 3888,-0.27020869,0.06780826,-0.12919007,0.28540727,0.01320032,-0.02186
 459,-0.00407000,-0.00288528,-0.00737203,-0.00500693,0.00074699,0.00146
 556,0.00007895,0.00053448,0.00075413,0.00129830,-0.10372292,0.10778897
 ,0.02572032,-0.00260284,0.00543954,0.00183777,0.11022373,0.01449216,-0
 .01945068,-0.00186644,-0.00302417,-0.00327736,-0.00334371,-0.00101368,
 0.00216548,0.00090765,-0.00049032,0.00260441,0.00074599,0.09687323,-0.
 28463992,-0.05734527,0.00533545,-0.01212475,-0.00449491,-0.10893568,0.
 30692122,0.01036217,-0.01909240,-0.00468131,-0.00273153,-0.00519178,-0
 .00200734,0.00028666,0.00177446,0.00016881,0.00036820,0.00150524,0.001
 15759,0.02193275,-0.05859414,-0.07131262,-0.01244079,0.02715497,0.0110
 1253,-0.02566497,0.06437574,0.06876953,-0.02567959,-0.01013527,0.01375
 239,0.00074923,0.00370212,0.00099474,-0.00358443,-0.00162717,-0.000397
 23,0.00122662,0.00052292,0.00138304,-0.12276063,-0.04940929,0.06264717
 ,-0.00498426,0.00166365,0.00426556,-0.00790738,-0.00100809,0.00520199,
 0.28286001,-0.01166687,0.00359710,0.01586709,0.00100808,-0.00246152,-0
 .00028154,-0.00723113,-0.00304203,-0.00112707,0.00079677,-0.00012126,-
 0.00046070,-0.01978038,-0.06412417,0.01976579,-0.01508701,-0.00226729,
 0.00899273,0.01992814,0.00613417,-0.01078704,-0.07045682,0.28409167,0.
 00274592,0.00038249,0.00613058,-0.00178297,-0.00016403,0.00043736,-0.0
 0349388,-0.00182588,0.00111098,-0.00145290,0.00018325,0.00053711,0.049
 59940,0.04339861,-0.08065894,0.02827199,0.00345185,-0.01294379,0.00057
 865,-0.00095731,-0.00157328,-0.06581981,-0.06342897,0.12500382,0.00345
 434,0.00196249,0.00112305,-0.00277968,-0.00009562,-0.00105324,-0.00131
 956,-0.00087139,0.00037851,-0.00116354,-0.00006950,-0.00098370,-0.0120
 4093,0.02813547,-0.00573525,0.00363247,-0.00019547,-0.00232674,-0.0059
 3955,-0.00144193,0.00188938,-0.10116055,0.09525212,-0.01605457,0.45193
 235,-0.00078795,-0.00701560,-0.00518107,-0.00223787,0.00403610,0.00120
 250,0.00209097,0.00194530,0.00073509,0.00011793,0.00076289,0.00076943,
 0.00696923,-0.00497617,-0.00275846,-0.00000098,0.00032708,-0.00125260,
 0.00255587,0.00093066,-0.00093163,0.08690457,-0.18854067,0.01383243,-0
 .14379117,0.48716567,-0.00053727,0.00353631,-0.00011224,-0.00005261,-0
 .00064547,0.00033990,-0.00134893,-0.00093283,0.00016480,-0.00038505,-0
 .00082703,0.00077146,0.00593758,-0.01552788,0.00100745,-0.00324619,-0.
 00178095,0.00281640,0.00386037,0.00181999,-0.00099868,-0.01394909,0.00
 057470,-0.04138898,0.17267312,0.26473790,0.50639152,-0.00264008,0.0000
 7893,-0.00011814,0.00073967,-0.00005369,0.00006137,0.00103886,0.000207
 86,-0.00030197,0.00064523,-0.00006276,0.00045368,-0.00207339,-0.000226
 36,-0.00192315,-0.00002773,0.00052848,0.00031278,0.00040782,-0.0000824
 5,0.00018763,-0.01251017,0.00314466,-0.00223334,-0.22253848,0.01770085
 ,-0.10660985,0.57189805,0.00067625,-0.00177448,-0.00021482,-0.00075147
 ,0.00062651,0.00023082,0.00000064,0.00026345,0.00006762,0.00006338,0.0
 0044000,-0.00028021,-0.00113481,-0.00094646,0.00091368,0.00031122,0.00
 067227,-0.00030312,0.00008205,0.00026911,0.00005998,0.03088437,-0.0128
 8617,0.01990869,0.00982335,-0.10195316,-0.02834337,-0.03490302,0.71279
 418,-0.00241033,-0.00073848,-0.00133618,0.00091544,0.00033146,0.000313
 06,0.00140507,0.00065348,-0.00018978,0.00047717,-0.00008900,0.00048385
 ,0.00334484,-0.00431852,0.00196296,-0.00009404,0.00007530,0.00034130,0
 .00159556,0.00024851,-0.00067913,-0.00844367,0.01788076,-0.00687366,-0
 .07183777,-0.02962141,-0.13283019,0.01490344,0.04509306,0.64537590,0.0
 0005420,-0.00049008,-0.00020480,-0.00013037,0.00022337,0.00012220,-0.0
 0001113,0.00005935,0.00005312,0.00006289,0.00007284,0.00006992,-0.0000
 5454,-0.00022638,0.00000677,-0.00026573,-0.00011210,0.00003590,0.00005
 308,0.00003022,-0.00000717,0.00210748,-0.00101918,0.00006941,-0.002263
 29,-0.02612194,-0.03337831,-0.06444031,0.01647393,0.02458355,0.0725437
 3,0.00016370,0.00002777,-0.00003270,-0.00003628,-0.00001919,-0.0000033
 1,-0.00008722,-0.00003610,0.00003960,-0.00000981,-0.00000247,0.0000115
 6,0.00010622,0.00057170,0.00004864,-0.00014315,0.00000226,-0.00001528,
 -0.00012499,-0.00008144,0.00009056,0.00049084,0.00075429,0.00145091,-0
 .00006669,0.00081272,0.00118824,0.01302406,-0.17184121,-0.14351008,-0.
 01419906,0.17707862,-0.00000947,-0.00027362,-0.00011521,-0.00005073,0.
 00015179,0.00003790,0.00009851,0.00007265,-0.00000162,0.00003952,0.000
 05650,-0.00002556,-0.00024977,0.00031619,0.00035951,-0.00004264,0.0000
 1028,-0.00009747,-0.00009668,0.00000181,0.00001256,0.00149400,-0.00104
 669,0.00120483,-0.00396829,-0.01337306,-0.01677038,0.02055845,-0.13320
 921,-0.23316888,-0.01717163,0.15392369,0.25352822,0.00035605,0.0008961
 0,0.00010368,0.00001793,-0.00038924,-0.00007726,-0.00033016,-0.0002338
 3,0.00006838,-0.00014927,-0.00018601,0.00004458,0.00054260,-0.00003008
 ,-0.00027952,-0.00018113,-0.00013155,0.00012180,-0.00004076,-0.0000756
 8,-0.00001434,-0.00319092,0.00210027,-0.00467942,-0.01631730,0.0339401
 5,-0.01232805,-0.06540386,0.03783134,-0.01130846,-0.00008247,0.0029018
 0,-0.00080629,0.07938230,-0.00028087,-0.00008075,-0.00000952,0.0001141
 8,0.00002943,-0.00000442,0.00018654,0.00007184,-0.00006032,0.00007244,
 0.00001028,0.00000564,-0.00012884,-0.00009360,0.00023732,-0.00001175,0
 .00000030,-0.00003143,0.00004442,-0.00001998,-0.00000751,-0.00057913,0
 .00189573,0.00023335,0.00258212,0.00556423,-0.00009402,0.03688889,-0.3
 0337648,0.08619870,0.00201267,-0.01725766,0.00734029,-0.04420709,0.323
 58523,0.00004798,0.00031480,0.00016041,0.00003953,-0.00013984,-0.00008
 408,-0.00005855,-0.00006079,-0.00002226,-0.00003888,-0.00006059,-0.000
 02895,0.00012905,-0.00025541,-0.00005608,-0.00005516,-0.00011507,0.000
 00740,0.00002959,-0.00002233,-0.00004950,-0.00029925,0.00111921,-0.001
 38261,-0.01227929,0.01655603,-0.00457501,-0.00864101,0.08003986,-0.091
 61346,0.00379116,-0.02607915,0.01360107,0.01778502,-0.09660524,0.09225
 479,-0.00316996,-0.00114190,-0.00124763,0.00076562,0.00039997,0.000247
 36,0.00184821,0.00066326,-0.00029574,0.00100121,0.00000863,0.00072654,
 -0.00056560,0.00065432,0.00080937,-0.00000365,0.00021684,0.00002325,0.
 00028488,0.00002365,0.00006196,-0.00411174,0.00042411,0.00129624,-0.03
 354659,-0.00506732,0.00039624,-0.17616142,-0.03387496,0.06873361,0.002
 69544,-0.00182902,-0.00037283,0.00861638,0.00631712,-0.00389287,0.7120
 6347,-0.00022120,0.00176710,0.00107664,0.00026701,-0.00100406,-0.00031
 144,-0.00052169,-0.00048450,-0.00007985,0.00001712,-0.00033376,0.00001
 930,0.00062081,-0.00276517,-0.00109112,-0.00062417,-0.00001535,0.00033
 365,0.00050119,0.00014474,-0.00019305,0.00305039,0.00552755,-0.0008388
 9,0.00411131,-0.00257291,-0.00185317,-0.03268015,-0.10134832,0.0206045
 5,0.02295345,0.00591014,-0.01775403,-0.02825929,-0.01453126,0.02478579
 ,0.01990801,0.66263542,0.00113562,0.00029339,0.00111830,-0.00043465,-0
 .00020899,-0.00035894,-0.00036429,-0.00015665,-0.00013252,-0.00042534,
 0.00008426,-0.00062951,-0.00108198,0.00165570,-0.00079705,0.00058762,0
 .00002730,-0.00027025,-0.00045676,-0.00008445,0.00020535,-0.00115954,-
 0.00563369,0.00158900,-0.02799186,-0.00213124,0.00470389,0.07623107,0.
 02300407,-0.13197301,0.02109826,0.00851315,-0.01832880,0.00697538,0.00
 181357,-0.00715803,-0.03476570,-0.02248468,0.68385552,0.00092855,0.000
 29465,0.00033988,-0.00023843,-0.00010644,-0.00007979,-0.00046878,-0.00
 016749,0.00007059,-0.00028750,0.00000704,-0.00023516,0.00007985,0.0001
 6743,-0.00009479,0.00008705,-0.00003480,-0.00004471,-0.00015216,-0.000
 02898,0.00001495,0.00055492,-0.00096505,0.00009545,0.00149409,0.000345
 63,0.00029931,0.00171784,0.02500221,0.03423452,-0.00642302,-0.00279527
 ,0.00433634,0.00059241,-0.00023000,-0.00074549,-0.11125583,0.02369640,
 0.04846359,0.09617505,-0.00023179,-0.00066748,-0.00049279,0.00000306,0
 .00037533,0.00016409,0.00024160,0.00018357,0.00004140,0.00010574,0.000
 10006,0.00011696,-0.00006348,0.00052165,0.00031545,0.00004985,0.000000
 99,-0.00004764,-0.00006135,-0.00002279,0.00002690,-0.00045816,-0.00054
 888,0.00022088,-0.00033963,0.00103884,0.00093275,-0.00297488,0.0006131
 4,-0.00684886,0.00004754,0.00193235,-0.00015282,0.00139255,0.00231182,
 -0.00159752,0.03023792,-0.15734754,-0.10591111,-0.03067391,0.23688088,
 -0.00068706,-0.00056688,-0.00078726,0.00014651,0.00032283,0.00025449,0
 .00034351,0.00018158,0.00007427,0.00028442,0.00003236,0.00035418,0.000
 04327,0.00016173,0.00035555,-0.00018668,-0.00000139,0.00002724,0.00003
 103,0.00000517,-0.00000484,0.00007513,0.00041170,0.00014804,0.00064573
 ,0.00075582,0.00393626,0.00176050,-0.03535077,-0.03726969,0.00800562,0
 .00353408,-0.00369101,-0.00124883,-0.00008744,0.00154173,0.05649189,-0
 .10032624,-0.25545681,-0.03479354,0.18552141,0.33625287,0.00091431,0.0
 0044513,0.00072728,-0.00021629,-0.00018715,-0.00011213,-0.00068493,-0.
 00027151,0.00005802,-0.00029840,0.00000941,-0.00026293,0.00003197,-0.0
 0074582,-0.00084084,-0.00008430,-0.00006435,0.00001813,-0.00003132,0.0
 0002356,-0.00003953,-0.00070240,0.00004782,0.00049687,0.00251032,0.000
 94135,0.00077336,0.00939199,-0.03192385,0.01251242,0.00078477,0.000585
 86,-0.00074417,-0.00565263,-0.00225462,0.00405414,-0.09885823,-0.00855
 543,0.00803505,0.01390335,0.01664457,0.00044638,0.09234053,0.00028533,
 -0.00088662,-0.00036778,-0.00018839,0.00050081,0.00010481,0.00021726,0
 .00023532,0.00001007,-0.00007956,0.00018838,-0.00011620,-0.00019317,0.
 00139184,0.00066751,0.00031148,-0.00003558,-0.00018755,-0.00027203,-0.
 00005473,0.00008602,0.00006302,-0.00299104,-0.00024503,-0.00132431,0.0
 0404986,-0.00302320,0.01103319,-0.03447909,0.01597698,-0.00071540,0.00
 093071,0.00104181,-0.00639312,-0.00007804,0.00424454,-0.01862191,-0.30
 538766,0.09767334,0.01124695,-0.08886816,-0.02198007,-0.02980411,0.447
 46816,-0.00030257,0.00017800,-0.00022583,0.00011407,-0.00009275,0.0000
 5277,0.00005997,-0.00002020,0.00002682,0.00012512,-0.00007700,0.000188
 03,0.00030322,-0.00041617,0.00021723,-0.00024683,0.00000678,0.00010248
 ,0.00009333,0.00002335,-0.00003688,0.00101874,0.00109611,-0.00022040,0
 .00167025,-0.00279834,0.00277950,-0.00706472,0.03596389,-0.00566270,-0
 .00196025,-0.00073662,0.00208037,0.00626884,0.00198656,-0.00296884,0.0
 1324580,0.09389202,-0.13334930,0.00171692,-0.04547001,0.01705489,0.013
 93556,-0.12792828,0.14128060,0.00211910,0.00052910,0.00063326,-0.00062
 903,-0.00014959,-0.00011251,-0.00117347,-0.00041997,0.00023593,-0.0005
 7941,0.00003014,-0.00039689,-0.00029929,0.00070064,-0.00065215,0.00003
 679,-0.00012784,-0.00010637,-0.00048170,-0.00004981,0.00009601,0.00192
 915,-0.00407968,0.00106326,-0.01442859,-0.00153962,0.00537479,-0.03886
 992,0.00661015,-0.04063900,0.00084362,0.00151050,-0.00037546,0.0008389
 3,-0.00124264,-0.00045828,-0.29950972,-0.00091623,-0.08976435,0.002975
 09,-0.01534289,-0.03366793,-0.01319587,0.03440687,-0.02981549,0.360161
 03,0.00010055,-0.00023007,-0.00009232,-0.00005854,0.00014163,0.0000340
 8,0.00002507,0.00004892,0.00001497,-0.00002529,0.00005032,-0.00002405,
 -0.00014742,0.00045763,0.00005225,0.00008364,-0.00001607,-0.00005794,-
 0.00010361,-0.00002800,0.00003409,-0.00040221,-0.00106779,0.00014768,-
 0.00232795,0.00209431,0.00117728,-0.00831726,0.00820778,-0.00450316,-0
 .00095364,-0.00002290,0.00153052,0.00127404,0.00195038,-0.00224322,0.0
 0339782,-0.08976117,0.00488281,-0.02688931,0.00383141,-0.03274040,0.05
 490067,-0.02199537,0.04413289,-0.02102388,0.09626842,0.00028898,0.0000
 9115,-0.00006606,-0.00006056,-0.00000348,0.00004687,-0.00023717,-0.000
 08391,0.00009356,-0.00005077,-0.00001584,0.00004381,0.00013085,-0.0002
 3154,-0.00005711,-0.00011368,-0.00003793,0.00003686,-0.00001489,0.0000
 1258,-0.00002313,0.00058595,0.00028669,-0.00002541,0.00082649,0.000266
 74,0.00139485,0.00580463,0.00143199,0.00669797,-0.00154014,0.00046128,
 0.00216029,-0.00039479,-0.00124068,0.00066153,-0.10200516,0.00380970,-
 0.14446567,-0.05394748,-0.02704337,-0.06289900,-0.03911878,0.03421041,
 -0.02112428,0.18854137,-0.01228399,0.21770916,-0.00104788,0.00445718,0
 .00198499,0.00136784,-0.00241915,-0.00115639,0.00023309,-0.00063923,-0
 .00057758,0.00006143,-0.00075945,-0.00007254,-0.00039516,0.00503908,0.
 00213680,0.00005948,-0.00004705,0.00013640,-0.00168739,-0.00062746,0.0
 0049662,-0.00283534,0.00758417,0.01129967,-0.04952548,0.02798030,-0.01
 747941,-0.00117410,-0.02517080,-0.02797234,-0.00547437,0.00050849,-0.0
 0263884,0.00100191,0.00071657,0.00059233,-0.00009248,-0.00334752,-0.00
 608212,0.00031752,0.00142327,0.00231005,-0.00015286,0.00002788,0.00083
 803,0.00026327,0.00046732,0.00130515,0.05908052,-0.00045789,0.00169000
 ,-0.00007221,0.00035875,-0.00071455,-0.00010205,0.00014187,-0.00020055
 ,-0.00012523,0.00000407,-0.00036252,0.00015474,0.00070694,-0.00127808,
 0.00100371,-0.00014091,-0.00009051,0.00011668,0.00017440,0.00052987,-0
 .00031042,0.00679427,-0.02394970,-0.01575005,0.00865679,-0.20366915,-0
 .22093924,-0.00330635,0.00471893,0.00256670,0.00196441,0.00124040,0.00
 136390,-0.00043036,0.00001853,0.00011892,-0.00171654,-0.00043326,-0.00
 133678,0.00113094,-0.00033517,0.00012651,0.00020848,0.00001121,0.00025
 977,0.00110474,0.00007057,0.00037021,-0.01519361,0.22275398,0.00094790
 ,-0.00086544,0.00089497,-0.00064933,0.00036654,-0.00033162,-0.00045448
 ,-0.00000966,0.00000858,-0.00023647,0.00026128,-0.00050446,-0.00006762
 ,-0.00106341,-0.00095511,-0.00011598,-0.00001518,-0.00011875,0.0001863
 7,-0.00002639,0.00004035,-0.00135011,0.01677094,0.00890535,-0.03697582
 ,-0.24080812,-0.32763056,0.00661863,-0.00901215,-0.01357835,-0.0035736
 0,0.00111542,-0.00078581,-0.00023072,0.00032513,-0.00028812,0.00054766
 ,0.00041081,0.00144784,0.00036941,0.00022426,0.00010909,0.00006116,-0.
 00016737,-0.00019446,0.00004380,-0.00006151,-0.00018424,0.03487918,0.2
 3255484,0.33316532\\0.00000278,0.00000040,0.00000248,-0.00001030,0.000
 00725,-0.00000108,0.00000039,-0.00000564,-0.00000092,-0.00000029,-0.00
 000254,-0.00000536,0.00000373,-0.00000691,0.00000469,-0.00000082,0.000
 00341,0.00000374,0.00000443,-0.00000252,-0.00000128,0.00001165,-0.0000
 0920,0.00000301,-0.00001821,0.00000067,-0.00001794,0.00001318,0.000003
 53,-0.00000483,0.00000587,0.00000370,0.00000923,-0.00001461,0.00000353
 ,0.00000320,0.00002322,-0.00000616,-0.00002404,-0.00000789,-0.00000409
 ,0.00000405,-0.00000645,0.00002069,0.00000262,-0.00000756,-0.00000457,
 0.00001332,0.00000087,-0.00000154,0.00000912\\\@


 "TIGER, TIGER BURNING BRIGHT
 IN THE FOREST OF THE NIGHT.
 WHAT IMMORTAL HAND OR EYE
 CAN FRAME THY FEARFUL SYMMETRYE?"
                     - WILLIAM BLAKE
 Job cpu time:  0 days  3 hours 56 minutes 46.7 seconds.
 File lengths (MBytes):  RWF=    316 Int=      0 D2E=      0 Chk=     14 Scr=      1
 Normal termination of Gaussian 09 at Fri May 29 11:39:50 2015.
