 Entering Gaussian System, Link 0=g09
 Input=Gas-HF-6-311+G2dfp-Freq-Opt-C6H5SNHC6H5.inp
 Output=Gas-HF-6-311+G2dfp-Freq-Opt-C6H5SNHC6H5.log
 Initial command:
 /usr/local/g09/l1.exe /local/gaussian-tmp/3702323/Gau-15862.inp -scrdir=/local/gaussian-tmp/3702323/
 Entering Link 1 = /usr/local/g09/l1.exe PID=     15863.
  
 Copyright (c) 1988,1990,1992,1993,1995,1998,2003,2009, Gaussian, Inc.
                  All Rights Reserved.
  
 This is part of the Gaussian(R) 09 program.  It is based on
 the Gaussian(R) 03 system (copyright 2003, Gaussian, Inc.),
 the Gaussian(R) 98 system (copyright 1998, Gaussian, Inc.),
 the Gaussian(R) 94 system (copyright 1995, Gaussian, Inc.),
 the Gaussian 92(TM) system (copyright 1992, Gaussian, Inc.),
 the Gaussian 90(TM) system (copyright 1990, Gaussian, Inc.),
 the Gaussian 88(TM) system (copyright 1988, Gaussian, Inc.),
 the Gaussian 86(TM) system (copyright 1986, Carnegie Mellon
 University), and the Gaussian 82(TM) system (copyright 1983,
 Carnegie Mellon University). Gaussian is a federally registered
 trademark of Gaussian, Inc.
  
 This software contains proprietary and confidential information,
 including trade secrets, belonging to Gaussian, Inc.
  
 This software is provided under written license and may be
 used, copied, transmitted, or stored only in accord with that
 written license.
  
 The following legend is applicable only to US Government
 contracts under FAR:
  
                    RESTRICTED RIGHTS LEGEND
  
 Use, reproduction and disclosure by the US Government is
 subject to restrictions as set forth in subparagraphs (a)
 and (c) of the Commercial Computer Software - Restricted
 Rights clause in FAR 52.227-19.
  
 Gaussian, Inc.
 340 Quinnipiac St., Bldg. 40, Wallingford CT 06492
  
  
 ---------------------------------------------------------------
 Warning -- This program may not be used in any manner that
 competes with the business of Gaussian, Inc. or will provide
 assistance to any competitor of Gaussian, Inc.  The licensee
 of this program is prohibited from giving any competitor of
 Gaussian, Inc. access to this program.  By using this program,
 the user acknowledges that Gaussian, Inc. is engaged in the
 business of creating and licensing software in the field of
 computational chemistry and represents and warrants to the
 licensee that it is not a competitor of Gaussian, Inc. and that
 it will not use this program in any manner prohibited above.
 ---------------------------------------------------------------
  

 Cite this work as:
 Gaussian 09, Revision A.02,
 M. J. Frisch, G. W. Trucks, H. B. Schlegel, G. E. Scuseria, 
 M. A. Robb, J. R. Cheeseman, G. Scalmani, V. Barone, B. Mennucci, 
 G. A. Petersson, H. Nakatsuji, M. Caricato, X. Li, H. P. Hratchian, 
 A. F. Izmaylov, J. Bloino, G. Zheng, J. L. Sonnenberg, M. Hada, 
 M. Ehara, K. Toyota, R. Fukuda, J. Hasegawa, M. Ishida, T. Nakajima, 
 Y. Honda, O. Kitao, H. Nakai, T. Vreven, J. A. Montgomery, Jr., 
 J. E. Peralta, F. Ogliaro, M. Bearpark, J. J. Heyd, E. Brothers, 
 K. N. Kudin, V. N. Staroverov, R. Kobayashi, J. Normand, 
 K. Raghavachari, A. Rendell, J. C. Burant, S. S. Iyengar, J. Tomasi, 
 M. Cossi, N. Rega, J. M. Millam, M. Klene, J. E. Knox, J. B. Cross, 
 V. Bakken, C. Adamo, J. Jaramillo, R. Gomperts, R. E. Stratmann, 
 O. Yazyev, A. J. Austin, R. Cammi, C. Pomelli, J. W. Ochterski, 
 R. L. Martin, K. Morokuma, V. G. Zakrzewski, G. A. Voth, 
 P. Salvador, J. J. Dannenberg, S. Dapprich, A. D. Daniels, 
 O. Farkas, J. B. Foresman, J. V. Ortiz, J. Cioslowski, 
 and D. J. Fox, Gaussian, Inc., Wallingford CT, 2009.
 
 ******************************************
 Gaussian 09:  EM64L-G09RevA.02 11-Jun-2009
                29-May-2015 
 ******************************************
 %chk=pookoposads
 %mem=10GB
 %nproc=8
 Will use up to    8 processors via shared memory.
 ----------------------------
 # HF/6-311+G(2df,p) Opt Freq
 ----------------------------
 1/18=20,19=15,38=1/1,3;
 2/9=110,12=2,17=6,18=5,40=1/2;
 3/5=4,6=6,7=114,11=9,16=1,25=1,30=1,71=1/1,2,3;
 4//1;
 5/5=2,38=5/2;
 6/7=2,8=2,9=2,10=2,28=1/1;
 7//1,2,3,16;
 1/18=20,19=15/3(2);
 2/9=110/2;
 99//99;
 2/9=110/2;
 3/5=4,6=6,7=114,11=9,16=1,25=1,30=1,71=1/1,2,3;
 4/5=5,16=3/1;
 5/5=2,38=5/2;
 7//1,2,3,16;
 1/18=20,19=15/3(-5);
 2/9=110/2;
 6/7=2,8=2,9=2,10=2,19=2,28=1/1;
 99/9=1/99;
 -----
 title
 -----
 Symbolic Z-matrix:
 Charge =  0 Multiplicity = 1
 6                    -2.83472  -0.59534   0.5213 
 6                    -1.81266  -0.39064  -0.39347 
 6                    -3.73672   0.41355   0.78737 
 1                    -4.5257    0.25052   1.49807 
 6                    -1.71008   0.82498  -1.04685 
 6                    -3.63081   1.62914   0.13403 
 1                    -0.92102   0.9817   -1.7574 
 1                    -4.33743   2.41219   0.33904 
 6                    -2.62042   1.83292  -0.78367 
 1                    -2.53627   2.77407  -1.29485 
 1                    -2.91958  -1.54189   1.02055 
 7                    -0.67024  -1.69781  -0.78512 
 16                    0.6707   -1.69831   0.7848 
 6                     1.81273  -0.39055   0.39384 
 6                     2.83476  -0.59516  -0.5211 
 6                     1.70993   0.82506   1.04708 
 1                     2.91971  -1.54173  -1.02028 
 1                     0.92093   0.98175   1.75771 
 6                     3.73649   0.41389  -0.78734 
 6                     2.62007   1.83316   0.78368 
 1                     4.52543   0.25097  -1.49813 
 1                     2.53575   2.77434   1.29478 
 6                     3.63041   1.62953  -0.13407 
 1                     4.33681   2.41274  -0.33924 
 1                    -0.6764   -2.29723  -1.58553 
 

 GradGradGradGradGradGradGradGradGradGradGradGradGradGradGradGradGradGrad
 Berny optimization.
 Initialization pass.
                           ----------------------------
                           !    Initial Parameters    !
                           ! (Angstroms and Degrees)  !
 --------------------------                            --------------------------
 ! Name  Definition              Value          Derivative Info.                !
 --------------------------------------------------------------------------------
 ! R1    R(1,2)                  1.3868         estimate D2E/DX2                !
 ! R2    R(1,3)                  1.3792         estimate D2E/DX2                !
 ! R3    R(1,11)                 1.0735         estimate D2E/DX2                !
 ! R4    R(2,5)                  1.3839         estimate D2E/DX2                !
 ! R5    R(2,12)                 1.7797         estimate D2E/DX2                !
 ! R6    R(3,4)                  1.0743         estimate D2E/DX2                !
 ! R7    R(3,6)                  1.3841         estimate D2E/DX2                !
 ! R8    R(5,7)                  1.0733         estimate D2E/DX2                !
 ! R9    R(5,9)                  1.3834         estimate D2E/DX2                !
 ! R10   R(6,8)                  1.0745         estimate D2E/DX2                !
 ! R11   R(6,9)                  1.3801         estimate D2E/DX2                !
 ! R12   R(9,10)                 1.0743         estimate D2E/DX2                !
 ! R13   R(12,13)                2.0646         estimate D2E/DX2                !
 ! R14   R(12,25)                1.0            estimate D2E/DX2                !
 ! R15   R(13,14)                1.7797         estimate D2E/DX2                !
 ! R16   R(14,15)                1.3869         estimate D2E/DX2                !
 ! R17   R(14,16)                1.3838         estimate D2E/DX2                !
 ! R18   R(15,17)                1.0735         estimate D2E/DX2                !
 ! R19   R(15,19)                1.3792         estimate D2E/DX2                !
 ! R20   R(16,18)                1.0733         estimate D2E/DX2                !
 ! R21   R(16,20)                1.3835         estimate D2E/DX2                !
 ! R22   R(19,21)                1.0743         estimate D2E/DX2                !
 ! R23   R(19,23)                1.3841         estimate D2E/DX2                !
 ! R24   R(20,22)                1.0743         estimate D2E/DX2                !
 ! R25   R(20,23)                1.38           estimate D2E/DX2                !
 ! R26   R(23,24)                1.0745         estimate D2E/DX2                !
 ! A1    A(2,1,3)              120.0825         estimate D2E/DX2                !
 ! A2    A(2,1,11)             119.6809         estimate D2E/DX2                !
 ! A3    A(3,1,11)             120.2366         estimate D2E/DX2                !
 ! A4    A(1,2,5)              119.7165         estimate D2E/DX2                !
 ! A5    A(1,2,12)             120.6524         estimate D2E/DX2                !
 ! A6    A(5,2,12)             119.5844         estimate D2E/DX2                !
 ! A7    A(1,3,4)              119.7954         estimate D2E/DX2                !
 ! A8    A(1,3,6)              120.0883         estimate D2E/DX2                !
 ! A9    A(4,3,6)              120.1148         estimate D2E/DX2                !
 ! A10   A(2,5,7)              119.69           estimate D2E/DX2                !
 ! A11   A(2,5,9)              120.0917         estimate D2E/DX2                !
 ! A12   A(7,5,9)              120.2183         estimate D2E/DX2                !
 ! A13   A(3,6,8)              119.9774         estimate D2E/DX2                !
 ! A14   A(3,6,9)              119.9728         estimate D2E/DX2                !
 ! A15   A(8,6,9)              120.0494         estimate D2E/DX2                !
 ! A16   A(5,9,6)              120.0451         estimate D2E/DX2                !
 ! A17   A(5,9,10)             119.7492         estimate D2E/DX2                !
 ! A18   A(6,9,10)             120.2056         estimate D2E/DX2                !
 ! A19   A(2,12,13)            104.4631         estimate D2E/DX2                !
 ! A20   A(2,12,25)            127.7684         estimate D2E/DX2                !
 ! A21   A(13,12,25)           127.7684         estimate D2E/DX2                !
 ! A22   A(12,13,14)           104.4513         estimate D2E/DX2                !
 ! A23   A(13,14,15)           120.6227         estimate D2E/DX2                !
 ! A24   A(13,14,16)           119.6123         estimate D2E/DX2                !
 ! A25   A(15,14,16)           119.7192         estimate D2E/DX2                !
 ! A26   A(14,15,17)           119.6809         estimate D2E/DX2                !
 ! A27   A(14,15,19)           120.0798         estimate D2E/DX2                !
 ! A28   A(17,15,19)           120.2393         estimate D2E/DX2                !
 ! A29   A(14,16,18)           119.6944         estimate D2E/DX2                !
 ! A30   A(14,16,20)           120.0894         estimate D2E/DX2                !
 ! A31   A(18,16,20)           120.2162         estimate D2E/DX2                !
 ! A32   A(15,19,21)           119.7946         estimate D2E/DX2                !
 ! A33   A(15,19,23)           120.0889         estimate D2E/DX2                !
 ! A34   A(21,19,23)           120.1151         estimate D2E/DX2                !
 ! A35   A(16,20,22)           119.7464         estimate D2E/DX2                !
 ! A36   A(16,20,23)           120.0476         estimate D2E/DX2                !
 ! A37   A(22,20,23)           120.2059         estimate D2E/DX2                !
 ! A38   A(19,23,20)           119.9721         estimate D2E/DX2                !
 ! A39   A(19,23,24)           119.9787         estimate D2E/DX2                !
 ! A40   A(20,23,24)           120.0487         estimate D2E/DX2                !
 ! D1    D(3,1,2,5)             -0.6242         estimate D2E/DX2                !
 ! D2    D(3,1,2,12)          -178.1295         estimate D2E/DX2                !
 ! D3    D(11,1,2,5)           179.3921         estimate D2E/DX2                !
 ! D4    D(11,1,2,12)            1.8868         estimate D2E/DX2                !
 ! D5    D(2,1,3,4)           -179.8977         estimate D2E/DX2                !
 ! D6    D(2,1,3,6)              0.5314         estimate D2E/DX2                !
 ! D7    D(11,1,3,4)             0.0859         estimate D2E/DX2                !
 ! D8    D(11,1,3,6)          -179.4849         estimate D2E/DX2                !
 ! D9    D(1,2,5,7)           -179.7775         estimate D2E/DX2                !
 ! D10   D(1,2,5,9)              0.2711         estimate D2E/DX2                !
 ! D11   D(12,2,5,7)            -2.2453         estimate D2E/DX2                !
 ! D12   D(12,2,5,9)           177.8032         estimate D2E/DX2                !
 ! D13   D(1,2,12,13)          -79.6072         estimate D2E/DX2                !
 ! D14   D(1,2,12,25)          100.3928         estimate D2E/DX2                !
 ! D15   D(5,2,12,13)          102.8842         estimate D2E/DX2                !
 ! D16   D(5,2,12,25)          -77.1158         estimate D2E/DX2                !
 ! D17   D(1,3,6,8)            179.6936         estimate D2E/DX2                !
 ! D18   D(1,3,6,9)             -0.0835         estimate D2E/DX2                !
 ! D19   D(4,3,6,8)              0.1242         estimate D2E/DX2                !
 ! D20   D(4,3,6,9)           -179.653          estimate D2E/DX2                !
 ! D21   D(2,5,9,6)              0.175          estimate D2E/DX2                !
 ! D22   D(2,5,9,10)          -179.9329         estimate D2E/DX2                !
 ! D23   D(7,5,9,6)           -179.7762         estimate D2E/DX2                !
 ! D24   D(7,5,9,10)             0.1159         estimate D2E/DX2                !
 ! D25   D(3,6,9,5)             -0.2699         estimate D2E/DX2                !
 ! D26   D(3,6,9,10)           179.8386         estimate D2E/DX2                !
 ! D27   D(8,6,9,5)            179.9531         estimate D2E/DX2                !
 ! D28   D(8,6,9,10)             0.0615         estimate D2E/DX2                !
 ! D29   D(2,12,13,14)         -81.3026         estimate D2E/DX2                !
 ! D30   D(25,12,13,14)         98.6974         estimate D2E/DX2                !
 ! D31   D(12,13,14,15)        -79.6232         estimate D2E/DX2                !
 ! D32   D(12,13,14,16)        102.8451         estimate D2E/DX2                !
 ! D33   D(13,14,15,17)          1.867          estimate D2E/DX2                !
 ! D34   D(13,14,15,19)       -178.1496         estimate D2E/DX2                !
 ! D35   D(16,14,15,17)        179.3961         estimate D2E/DX2                !
 ! D36   D(16,14,15,19)         -0.6205         estimate D2E/DX2                !
 ! D37   D(13,14,16,18)         -2.2254         estimate D2E/DX2                !
 ! D38   D(13,14,16,20)        177.8211         estimate D2E/DX2                !
 ! D39   D(15,14,16,18)       -179.7796         estimate D2E/DX2                !
 ! D40   D(15,14,16,20)          0.2669         estimate D2E/DX2                !
 ! D41   D(14,15,19,21)       -179.8982         estimate D2E/DX2                !
 ! D42   D(14,15,19,23)          0.5307         estimate D2E/DX2                !
 ! D43   D(17,15,19,21)          0.0851         estimate D2E/DX2                !
 ! D44   D(17,15,19,23)       -179.486          estimate D2E/DX2                !
 ! D45   D(14,16,20,22)       -179.9324         estimate D2E/DX2                !
 ! D46   D(14,16,20,23)          0.1766         estimate D2E/DX2                !
 ! D47   D(18,16,20,22)          0.1144         estimate D2E/DX2                !
 ! D48   D(18,16,20,23)       -179.7766         estimate D2E/DX2                !
 ! D49   D(15,19,23,20)         -0.0854         estimate D2E/DX2                !
 ! D50   D(15,19,23,24)        179.696          estimate D2E/DX2                !
 ! D51   D(21,19,23,20)       -179.6551         estimate D2E/DX2                !
 ! D52   D(21,19,23,24)          0.1263         estimate D2E/DX2                !
 ! D53   D(16,20,23,19)         -0.2685         estimate D2E/DX2                !
 ! D54   D(16,20,23,24)        179.9503         estimate D2E/DX2                !
 ! D55   D(22,20,23,19)        179.8411         estimate D2E/DX2                !
 ! D56   D(22,20,23,24)          0.0598         estimate D2E/DX2                !
 --------------------------------------------------------------------------------
 Trust Radius=3.00D-01 FncErr=1.00D-07 GrdErr=1.00D-07
 Number of steps in this run= 132 maximum allowed number of steps= 150.
 GradGradGradGradGradGradGradGradGradGradGradGradGradGradGradGradGradGrad

                          Input orientation:                          
 ---------------------------------------------------------------------
 Center     Atomic      Atomic             Coordinates (Angstroms)
 Number     Number       Type             X           Y           Z
 ---------------------------------------------------------------------
      1          6           0       -2.834717   -0.595343    0.521300
      2          6           0       -1.812655   -0.390638   -0.393466
      3          6           0       -3.736715    0.413550    0.787368
      4          1           0       -4.525704    0.250521    1.498072
      5          6           0       -1.710076    0.824977   -1.046850
      6          6           0       -3.630810    1.629136    0.134026
      7          1           0       -0.921017    0.981703   -1.757399
      8          1           0       -4.337434    2.412189    0.339042
      9          6           0       -2.620419    1.832917   -0.783665
     10          1           0       -2.536273    2.774069   -1.294845
     11          1           0       -2.919576   -1.541887    1.020550
     12          7           0       -0.670240   -1.697808   -0.785120
     13         16           0        0.670702   -1.698306    0.784795
     14          6           0        1.812728   -0.390548    0.393843
     15          6           0        2.834757   -0.595163   -0.521099
     16          6           0        1.709928    0.825059    1.047079
     17          1           0        2.919712   -1.541727   -1.020275
     18          1           0        0.920925    0.981750    1.757709
     19          6           0        3.736494    0.413893   -0.787338
     20          6           0        2.620072    1.833160    0.783684
     21          1           0        4.525431    0.250971   -1.498128
     22          1           0        2.535751    2.774342    1.294782
     23          6           0        3.630410    1.629526   -0.134065
     24          1           0        4.336812    2.412740   -0.339235
     25          1           0       -0.676404   -2.297234   -1.585526
 ---------------------------------------------------------------------
                    Distance matrix (angstroms):
                    1          2          3          4          5
     1  C    0.000000
     2  C    1.386835   0.000000
     3  C    1.379224   2.396475   0.000000
     4  H    2.128146   3.368922   1.074329   0.000000
     5  C    2.396084   1.383891   2.764217   3.838540   0.000000
     6  C    2.394170   2.768289   1.384096   2.135892   2.393817
     7  H    3.367758   2.130411   3.837550   4.911872   1.073339
     8  H    3.366991   3.842775   2.134577   2.460001   3.367929
     9  C    2.765014   2.397694   2.393505   3.367553   1.383450
    10  H    3.839321   3.369195   3.368786   4.257525   2.131446
    11  H    1.073498   2.133094   2.132094   2.453651   3.367355
    12  N    2.758101   1.779662   4.041512   4.886057   2.741205
    13  S    3.684280   3.043905   4.887256   5.595474   3.923007
    14  C    4.653701   3.709886   5.621188   6.465757   3.995403
    15  C    5.764506   4.653661   6.775975   7.679103   4.790482
    16  C    4.790384   3.995207   5.468337   6.278264   4.010108
    17  H    6.032044   4.910519   7.169289   8.061541   5.199705
    18  H    4.256851   3.739447   4.791453   5.501625   3.848674
    19  C    6.775832   5.620984   7.637313   8.574013   5.468223
    20  C    5.976721   5.097061   6.513374   7.353721   4.808063
    21  H    7.678940   6.465545   8.573971   9.534163   6.278111
    22  H    6.387095   5.637013   6.721208   7.501676   5.225927
    23  C    6.868582   5.811653   7.523441   8.431353   5.477341
    24  H    7.824315   6.758536   8.393321   9.305648   6.291786
    25  H    3.463158   2.519362   4.726995   5.551283   3.332695
                    6          7          8          9         10
     6  C    0.000000
     7  H    3.367438   0.000000
     8  H    1.074486   4.255968   0.000000
     9  C    1.380063   2.135577   2.131705   0.000000
    10  H    2.133203   2.456743   2.458602   1.074315   0.000000
    11  H    3.368555   4.252028   4.255525   3.838488   4.912784
    12  N    4.547347   2.861467   5.621755   4.033512   4.872328
    13  S    5.477077   4.022284   6.494328   5.075537   5.883173
    14  C    5.811948   3.739556   6.758907   5.097363   5.637400
    15  C    6.868788   4.256851   7.824598   5.976910   6.387360
    16  C    5.477562   3.848572   6.292129   4.808254   5.226229
    17  H    7.368590   4.654272   8.375402   6.491322   6.961987
    18  H    4.875833   3.968468   5.631084   4.441192   4.948001
    19  C    7.523490   4.791225   8.393464   6.513370   6.721280
    20  C    6.287862   4.440878   6.995704   5.469856   5.638571
    21  H    8.431342   5.501362   9.305720   7.353651   7.501667
    22  H    6.378505   4.947586   6.948760   5.638467   5.694874
    23  C    7.266167   4.875487   8.020158   6.287783   6.378508
    24  H    8.020038   5.630615   8.700724   6.995483   6.948600
    25  H    5.205935   3.292538   6.267836   4.634687   5.409411
                   11         12         13         14         15
    11  H    0.000000
    12  N    2.888645   0.000000
    13  S    3.601409   2.064645   0.000000
    14  C    4.910503   3.043684   1.779690   0.000000
    15  C    6.032024   3.683821   2.757792   1.386914   0.000000
    16  C    5.199562   3.922628   2.741561   1.383830   2.396133
    17  H    6.185649   3.601030   2.888051   2.133156   1.073488
    18  H    4.654202   4.022166   2.862145   2.130410   3.367844
    19  C    7.169156   4.886572   4.041295   2.396495   1.379205
    20  C    6.491128   5.074942   4.033770   2.397636   2.765014
    21  H    8.061402   5.594740   4.885730   3.368955   2.128123
    22  H    6.961726   5.882559   4.872687   3.369122   3.839322
    23  C    7.368400   5.476369   4.547377   2.768276   2.394180
    24  H    8.375157   6.493534   5.621788   3.842763   3.367005
    25  H    3.520512   1.000000   2.791385   3.707982   4.044540
                   16         17         18         19         20
    16  C    0.000000
    17  H    3.367374   0.000000
    18  H    1.073347   4.252091   0.000000
    19  C    2.764256   2.132098   3.837598   0.000000
    20  C    1.383476   3.838478   2.135585   2.393497   0.000000
    21  H    3.838582   2.453659   4.911922   1.074331   3.367548
    22  H    2.131442   4.912776   2.456695   3.368787   1.074316
    23  C    2.393850   3.368576   3.367452   1.384118   1.380041
    24  H    3.367954   4.255561   4.255959   2.134612   2.131679
    25  H    4.730106   3.717842   4.947769   5.240323   5.791379
                   21         22         23         24         25
    21  H    0.000000
    22  H    4.257531   0.000000
    23  C    2.135918   2.133187   0.000000
    24  H    2.460052   2.458574   1.074487   0.000000
    25  H    5.793106   6.658453   6.006233   6.990668   0.000000
 Stoichiometry    C12H11NS
 Framework group  C1[X(C12H11NS)]
 Deg. of freedom    69
 Full point group                 C1      NOp   1
 Largest Abelian subgroup         C1      NOp   1
 Largest concise Abelian subgroup C1      NOp   1
                         Standard orientation:                         
 ---------------------------------------------------------------------
 Center     Atomic      Atomic             Coordinates (Angstroms)
 Number     Number       Type             X           Y           Z
 ---------------------------------------------------------------------
      1          6           0       -2.874371    0.800897   -0.396201
      2          6           0       -1.850797    0.513081    0.494175
      3          6           0       -3.796246   -0.170135   -0.727111
      4          1           0       -4.586337    0.057364   -1.418618
      5          6           0       -1.766589   -0.747803    1.058298
      6          6           0       -3.708711   -1.431046   -0.163052
      7          1           0       -0.976312   -0.969006    1.750100
      8          1           0       -4.430753   -2.184704   -0.418352
      9          6           0       -2.696772   -1.717942    0.730392
     10          1           0       -2.626818   -2.694606    1.172417
     11          1           0       -2.944868    1.782098   -0.825936
     12          7           0       -0.682345    1.768307    0.969910
     13         16           0        0.649011    1.857229   -0.605635
     14          6           0        1.769225    0.504703   -0.317382
     15          6           0        2.800257    0.625081    0.602408
     16          6           0        1.640313   -0.659024   -1.055018
     17          1           0        2.905487    1.531838    1.167293
     18          1           0        0.844358   -0.750380   -1.769289
     19          6           0        3.684949   -0.416351    0.789348
     20          6           0        2.533412   -1.699449   -0.870907
     21          1           0        4.480954   -0.318791    1.504224
     22          1           0        2.428843   -2.599997   -1.447304
     23          6           0        3.552753   -1.580042    0.051697
     24          1           0        4.245916   -2.388395    0.195273
     25          1           0       -0.672774    2.308943    1.811113
 ---------------------------------------------------------------------
 Rotational constants (GHZ):      1.0987862      0.3606549      0.3083731
 Standard basis: 6-311+G(2df,p) (5D, 7F)
 There are   550 symmetry adapted basis functions of A   symmetry.
 Integral buffers will be    131072 words long.
 Raffenetti 1 integral format.
 Two-electron integral symmetry is turned on.
   550 basis functions,   830 primitive gaussians,   620 cartesian basis functions
    53 alpha electrons       53 beta electrons
       nuclear repulsion energy       875.6185523774 Hartrees.
 NAtoms=   25 NActive=   25 NUniq=   25 SFac= 7.50D-01 NAtFMM=   80 NAOKFM=F Big=F
 One-electron integrals computed using PRISM.
 NBasis=   550 RedAO= T  NBF=   550
 NBsUse=   550 1.00D-06 NBFU=   550
 Harris functional with IExCor=  205 diagonalized for initial guess.
 ExpMin= 4.05D-02 ExpMax= 9.34D+04 ExpMxC= 3.17D+03 IAcc=2 IRadAn=         0 AccDes= 0.00D+00
 HarFok:  IExCor=  205 AccDes= 0.00D+00 IRadAn=         0 IDoV= 1
 ScaDFX=  1.000000  1.000000  1.000000  1.000000
 FoFCou: FMM=F IPFlag=           0 FMFlag=      100000 FMFlg1=           0
         NFxFlg=           0 DoJE=T BraDBF=F KetDBF=T FulRan=T
         Omega=  0.000000  0.000000  1.000000  0.000000  0.000000 ICntrl=     500 IOpCl=  0
         NMat0=    1 NMatS0=    1 NMatT0=    0 NMatD0=    1 NMtDS0=    0 NMtDT0=    0
         I1Cent=           4 NGrid=           0.
 Petite list used in FoFCou.
 Initial guess orbital symmetries:
       Occupied  (A) (A) (A) (A) (A) (A) (A) (A) (A) (A) (A) (A)
                 (A) (A) (A) (A) (A) (A) (A) (A) (A) (A) (A) (A)
                 (A) (A) (A) (A) (A) (A) (A) (A) (A) (A) (A) (A)
                 (A) (A) (A) (A) (A) (A) (A) (A) (A) (A) (A) (A)
                 (A) (A) (A) (A) (A)
       Virtual   (A) (A) (A) (A) (A) (A) (A) (A) (A) (A) (A) (A)
                 (A) (A) (A) (A) (A) (A) (A) (A) (A) (A) (A) (A)
                 (A) (A) (A) (A) (A) (A) (A) (A) (A) (A) (A) (A)
                 (A) (A) (A) (A) (A) (A) (A) (A) (A) (A) (A) (A)
                 (A) (A) (A) (A) (A) (A) (A) (A) (A) (A) (A) (A)
                 (A) (A) (A) (A) (A) (A) (A) (A) (A) (A) (A) (A)
                 (A) (A) (A) (A) (A) (A) (A) (A) (A) (A) (A) (A)
                 (A) (A) (A) (A) (A) (A) (A) (A) (A) (A) (A) (A)
                 (A) (A) (A) (A) (A) (A) (A) (A) (A) (A) (A) (A)
                 (A) (A) (A) (A) (A) (A) (A) (A) (A) (A) (A) (A)
                 (A) (A) (A) (A) (A) (A) (A) (A) (A) (A) (A) (A)
                 (A) (A) (A) (A) (A) (A) (A) (A) (A) (A) (A) (A)
                 (A) (A) (A) (A) (A) (A) (A) (A) (A) (A) (A) (A)
                 (A) (A) (A) (A) (A) (A) (A) (A) (A) (A) (A) (A)
                 (A) (A) (A) (A) (A) (A) (A) (A) (A) (A) (A) (A)
                 (A) (A) (A) (A) (A) (A) (A) (A) (A) (A) (A) (A)
                 (A) (A) (A) (A) (A) (A) (A) (A) (A) (A) (A) (A)
                 (A) (A) (A) (A) (A) (A) (A) (A) (A) (A) (A) (A)
                 (A) (A) (A) (A) (A) (A) (A) (A) (A) (A) (A) (A)
                 (A) (A) (A) (A) (A) (A) (A) (A) (A) (A) (A) (A)
                 (A) (A) (A) (A) (A) (A) (A) (A) (A) (A) (A) (A)
                 (A) (A) (A) (A) (A) (A) (A) (A) (A) (A) (A) (A)
                 (A) (A) (A) (A) (A) (A) (A) (A) (A) (A) (A) (A)
                 (A) (A) (A) (A) (A) (A) (A) (A) (A) (A) (A) (A)
                 (A) (A) (A) (A) (A) (A) (A) (A) (A) (A) (A) (A)
                 (A) (A) (A) (A) (A) (A) (A) (A) (A) (A) (A) (A)
                 (A) (A) (A) (A) (A) (A) (A) (A) (A) (A) (A) (A)
                 (A) (A) (A) (A) (A) (A) (A) (A) (A) (A) (A) (A)
                 (A) (A) (A) (A) (A) (A) (A) (A) (A) (A) (A) (A)
                 (A) (A) (A) (A) (A) (A) (A) (A) (A) (A) (A) (A)
                 (A) (A) (A) (A) (A) (A) (A) (A) (A) (A) (A) (A)
                 (A) (A) (A) (A) (A) (A) (A) (A) (A) (A) (A) (A)
                 (A) (A) (A) (A) (A) (A) (A) (A) (A) (A) (A) (A)
                 (A) (A) (A) (A) (A) (A) (A) (A) (A) (A) (A) (A)
                 (A) (A) (A) (A) (A) (A) (A) (A) (A) (A) (A) (A)
                 (A) (A) (A) (A) (A) (A) (A) (A) (A) (A) (A) (A)
                 (A) (A) (A) (A) (A) (A) (A) (A) (A) (A) (A) (A)
                 (A) (A) (A) (A) (A) (A) (A) (A) (A) (A) (A) (A)
                 (A) (A) (A) (A) (A) (A) (A) (A) (A) (A) (A) (A)
                 (A) (A) (A) (A) (A) (A) (A) (A) (A) (A) (A) (A)
                 (A) (A) (A) (A) (A) (A) (A) (A) (A) (A) (A) (A)
                 (A) (A) (A) (A) (A)
 The electronic state of the initial guess is 1-A.
 Requested convergence on RMS density matrix=1.00D-08 within 128 cycles.
 Requested convergence on MAX density matrix=1.00D-06.
 Requested convergence on             energy=1.00D-06.
 No special actions if energy rises.
 Initial convergence to 1.0D-05 achieved.  Increase integral accuracy.
 SCF Done:  E(RHF) =  -912.831650825     A.U. after   19 cycles
             Convg  =    0.5091D-08             -V/T =  2.0010

 **********************************************************************

            Population analysis using the SCF density.

 **********************************************************************

 Orbital symmetries:
       Occupied  (A) (A) (A) (A) (A) (A) (A) (A) (A) (A) (A) (A)
                 (A) (A) (A) (A) (A) (A) (A) (A) (A) (A) (A) (A)
                 (A) (A) (A) (A) (A) (A) (A) (A) (A) (A) (A) (A)
                 (A) (A) (A) (A) (A) (A) (A) (A) (A) (A) (A) (A)
                 (A) (A) (A) (A) (A)
       Virtual   (A) (A) (A) (A) (A) (A) (A) (A) (A) (A) (A) (A)
                 (A) (A) (A) (A) (A) (A) (A) (A) (A) (A) (A) (A)
                 (A) (A) (A) (A) (A) (A) (A) (A) (A) (A) (A) (A)
                 (A) (A) (A) (A) (A) (A) (A) (A) (A) (A) (A) (A)
                 (A) (A) (A) (A) (A) (A) (A) (A) (A) (A) (A) (A)
                 (A) (A) (A) (A) (A) (A) (A) (A) (A) (A) (A) (A)
                 (A) (A) (A) (A) (A) (A) (A) (A) (A) (A) (A) (A)
                 (A) (A) (A) (A) (A) (A) (A) (A) (A) (A) (A) (A)
                 (A) (A) (A) (A) (A) (A) (A) (A) (A) (A) (A) (A)
                 (A) (A) (A) (A) (A) (A) (A) (A) (A) (A) (A) (A)
                 (A) (A) (A) (A) (A) (A) (A) (A) (A) (A) (A) (A)
                 (A) (A) (A) (A) (A) (A) (A) (A) (A) (A) (A) (A)
                 (A) (A) (A) (A) (A) (A) (A) (A) (A) (A) (A) (A)
                 (A) (A) (A) (A) (A) (A) (A) (A) (A) (A) (A) (A)
                 (A) (A) (A) (A) (A) (A) (A) (A) (A) (A) (A) (A)
                 (A) (A) (A) (A) (A) (A) (A) (A) (A) (A) (A) (A)
                 (A) (A) (A) (A) (A) (A) (A) (A) (A) (A) (A) (A)
                 (A) (A) (A) (A) (A) (A) (A) (A) (A) (A) (A) (A)
                 (A) (A) (A) (A) (A) (A) (A) (A) (A) (A) (A) (A)
                 (A) (A) (A) (A) (A) (A) (A) (A) (A) (A) (A) (A)
                 (A) (A) (A) (A) (A) (A) (A) (A) (A) (A) (A) (A)
                 (A) (A) (A) (A) (A) (A) (A) (A) (A) (A) (A) (A)
                 (A) (A) (A) (A) (A) (A) (A) (A) (A) (A) (A) (A)
                 (A) (A) (A) (A) (A) (A) (A) (A) (A) (A) (A) (A)
                 (A) (A) (A) (A) (A) (A) (A) (A) (A) (A) (A) (A)
                 (A) (A) (A) (A) (A) (A) (A) (A) (A) (A) (A) (A)
                 (A) (A) (A) (A) (A) (A) (A) (A) (A) (A) (A) (A)
                 (A) (A) (A) (A) (A) (A) (A) (A) (A) (A) (A) (A)
                 (A) (A) (A) (A) (A) (A) (A) (A) (A) (A) (A) (A)
                 (A) (A) (A) (A) (A) (A) (A) (A) (A) (A) (A) (A)
                 (A) (A) (A) (A) (A) (A) (A) (A) (A) (A) (A) (A)
                 (A) (A) (A) (A) (A) (A) (A) (A) (A) (A) (A) (A)
                 (A) (A) (A) (A) (A) (A) (A) (A) (A) (A) (A) (A)
                 (A) (A) (A) (A) (A) (A) (A) (A) (A) (A) (A) (A)
                 (A) (A) (A) (A) (A) (A) (A) (A) (A) (A) (A) (A)
                 (A) (A) (A) (A) (A) (A) (A) (A) (A) (A) (A) (A)
                 (A) (A) (A) (A) (A) (A) (A) (A) (A) (A) (A) (A)
                 (A) (A) (A) (A) (A) (A) (A) (A) (A) (A) (A) (A)
                 (A) (A) (A) (A) (A) (A) (A) (A) (A) (A) (A) (A)
                 (A) (A) (A) (A) (A) (A) (A) (A) (A) (A) (A) (A)
                 (A) (A) (A) (A) (A) (A) (A) (A) (A) (A) (A) (A)
                 (A) (A) (A) (A) (A)
 The electronic state is 1-A.
 Alpha  occ. eigenvalues --  -91.98974 -15.57704 -11.29694 -11.26254 -11.24296
 Alpha  occ. eigenvalues --  -11.24255 -11.24181 -11.23710 -11.23703 -11.23687
 Alpha  occ. eigenvalues --  -11.23671 -11.23534 -11.23484 -11.23328  -8.98458
 Alpha  occ. eigenvalues --   -6.66586  -6.66507  -6.66410  -1.17403  -1.16688
 Alpha  occ. eigenvalues --   -1.08223  -1.04478  -1.03053  -1.02602  -1.00029
 Alpha  occ. eigenvalues --   -0.91252  -0.84104  -0.83406  -0.81583  -0.80236
 Alpha  occ. eigenvalues --   -0.70754  -0.70658  -0.64235  -0.63921  -0.63527
 Alpha  occ. eigenvalues --   -0.63361  -0.60062  -0.59614  -0.59324  -0.56503
 Alpha  occ. eigenvalues --   -0.53641  -0.51747  -0.51192  -0.50810  -0.50354
 Alpha  occ. eigenvalues --   -0.48402  -0.43941  -0.37599  -0.37337  -0.35063
 Alpha  occ. eigenvalues --   -0.34887  -0.34326  -0.32474
 Alpha virt. eigenvalues --    0.05334   0.05935   0.06858   0.07444   0.07986
 Alpha virt. eigenvalues --    0.08275   0.08778   0.09365   0.09801   0.10357
 Alpha virt. eigenvalues --    0.10717   0.10797   0.11162   0.11243   0.11781
 Alpha virt. eigenvalues --    0.12065   0.12892   0.13780   0.13905   0.14290
 Alpha virt. eigenvalues --    0.14926   0.15979   0.16364   0.17319   0.17480
 Alpha virt. eigenvalues --    0.18436   0.18732   0.19198   0.19728   0.20159
 Alpha virt. eigenvalues --    0.20557   0.21520   0.21823   0.21974   0.22423
 Alpha virt. eigenvalues --    0.22572   0.22974   0.23097   0.23442   0.24393
 Alpha virt. eigenvalues --    0.25113   0.25475   0.26059   0.26453   0.26504
 Alpha virt. eigenvalues --    0.27038   0.28002   0.28501   0.28786   0.29625
 Alpha virt. eigenvalues --    0.29876   0.30135   0.30251   0.30405   0.31039
 Alpha virt. eigenvalues --    0.31589   0.31694   0.32281   0.32638   0.33173
 Alpha virt. eigenvalues --    0.33443   0.33803   0.34782   0.35153   0.35800
 Alpha virt. eigenvalues --    0.36414   0.36693   0.36827   0.37168   0.37705
 Alpha virt. eigenvalues --    0.38115   0.39081   0.39809   0.41118   0.42060
 Alpha virt. eigenvalues --    0.44398   0.44942   0.47023   0.47358   0.47726
 Alpha virt. eigenvalues --    0.48212   0.49164   0.50772   0.51899   0.52371
 Alpha virt. eigenvalues --    0.54643   0.55264   0.58897   0.60342   0.61639
 Alpha virt. eigenvalues --    0.62049   0.63354   0.66002   0.67219   0.67500
 Alpha virt. eigenvalues --    0.68124   0.68480   0.69150   0.69456   0.70228
 Alpha virt. eigenvalues --    0.70509   0.70688   0.72211   0.72786   0.73290
 Alpha virt. eigenvalues --    0.73889   0.75133   0.75852   0.76384   0.76786
 Alpha virt. eigenvalues --    0.77099   0.78060   0.79297   0.80355   0.81169
 Alpha virt. eigenvalues --    0.81973   0.82228   0.82906   0.83057   0.83449
 Alpha virt. eigenvalues --    0.83682   0.84053   0.84501   0.85088   0.85499
 Alpha virt. eigenvalues --    0.86108   0.86677   0.87574   0.88323   0.89217
 Alpha virt. eigenvalues --    0.90586   0.91245   0.92559   0.93437   0.93894
 Alpha virt. eigenvalues --    0.94232   0.94996   0.96522   0.96717   0.96947
 Alpha virt. eigenvalues --    0.97324   0.97512   0.98029   0.99169   0.99577
 Alpha virt. eigenvalues --    1.00240   1.00520   1.01411   1.02252   1.02682
 Alpha virt. eigenvalues --    1.03176   1.04459   1.05185   1.05469   1.06019
 Alpha virt. eigenvalues --    1.06608   1.07144   1.08391   1.08716   1.09964
 Alpha virt. eigenvalues --    1.11280   1.13025   1.14522   1.16807   1.17194
 Alpha virt. eigenvalues --    1.17880   1.18732   1.19356   1.20912   1.23627
 Alpha virt. eigenvalues --    1.28792   1.32082   1.33730   1.33998   1.34775
 Alpha virt. eigenvalues --    1.35544   1.37000   1.37226   1.40270   1.41717
 Alpha virt. eigenvalues --    1.42737   1.44453   1.45916   1.46734   1.47333
 Alpha virt. eigenvalues --    1.49365   1.51818   1.52601   1.53637   1.54566
 Alpha virt. eigenvalues --    1.55269   1.55764   1.56946   1.57474   1.58588
 Alpha virt. eigenvalues --    1.58879   1.60014   1.60773   1.61203   1.62862
 Alpha virt. eigenvalues --    1.64515   1.66131   1.66288   1.68517   1.69137
 Alpha virt. eigenvalues --    1.70198   1.71559   1.74581   1.77949   1.78416
 Alpha virt. eigenvalues --    1.79210   1.80195   1.80439   1.81508   1.82165
 Alpha virt. eigenvalues --    1.84083   1.84546   1.86518   1.89686   1.90867
 Alpha virt. eigenvalues --    1.90938   1.92476   1.94569   1.97548   2.01921
 Alpha virt. eigenvalues --    2.03963   2.05373   2.06052   2.07729   2.08760
 Alpha virt. eigenvalues --    2.11100   2.12609   2.14460   2.16210   2.18752
 Alpha virt. eigenvalues --    2.21532   2.23805   2.25329   2.27091   2.28077
 Alpha virt. eigenvalues --    2.28367   2.30264   2.34234   2.38305   2.43953
 Alpha virt. eigenvalues --    2.45829   2.49256   2.52287   2.53110   2.55678
 Alpha virt. eigenvalues --    2.56020   2.61367   2.61501   2.62220   2.64273
 Alpha virt. eigenvalues --    2.65386   2.70952   2.71845   2.72612   2.74029
 Alpha virt. eigenvalues --    2.74919   2.76394   2.79074   2.80160   2.82569
 Alpha virt. eigenvalues --    2.82726   2.83412   2.84839   2.85748   2.87515
 Alpha virt. eigenvalues --    2.88347   2.88945   2.90632   2.91414   2.92417
 Alpha virt. eigenvalues --    2.94993   2.95423   2.95840   2.96596   2.96814
 Alpha virt. eigenvalues --    3.01169   3.01350   3.02688   3.04221   3.06690
 Alpha virt. eigenvalues --    3.08195   3.08703   3.09350   3.09564   3.10256
 Alpha virt. eigenvalues --    3.10408   3.10491   3.10690   3.11310   3.11563
 Alpha virt. eigenvalues --    3.12025   3.12213   3.13510   3.14364   3.15903
 Alpha virt. eigenvalues --    3.16174   3.16959   3.17749   3.18842   3.20127
 Alpha virt. eigenvalues --    3.20570   3.21398   3.22237   3.23383   3.24076
 Alpha virt. eigenvalues --    3.24320   3.24544   3.25015   3.25430   3.26098
 Alpha virt. eigenvalues --    3.27297   3.27531   3.28941   3.29597   3.29759
 Alpha virt. eigenvalues --    3.31535   3.32316   3.33077   3.34174   3.34242
 Alpha virt. eigenvalues --    3.35157   3.37056   3.42246   3.43332   3.44396
 Alpha virt. eigenvalues --    3.45386   3.45538   3.46746   3.47199   3.47666
 Alpha virt. eigenvalues --    3.48165   3.49214   3.51371   3.55063   3.61765
 Alpha virt. eigenvalues --    3.63031   3.63293   3.63981   3.64242   3.64689
 Alpha virt. eigenvalues --    3.66558   3.67084   3.67507   3.68090   3.69182
 Alpha virt. eigenvalues --    3.69571   3.71339   3.72292   3.72433   3.73017
 Alpha virt. eigenvalues --    3.74245   3.74800   3.75555   3.75987   3.78746
 Alpha virt. eigenvalues --    3.78854   3.80395   3.81215   3.84668   3.84862
 Alpha virt. eigenvalues --    3.85743   3.86448   3.86577   3.87416   3.87626
 Alpha virt. eigenvalues --    3.88027   3.88565   3.88794   3.89969   3.90490
 Alpha virt. eigenvalues --    3.91356   3.91593   3.93311   3.96943   3.99408
 Alpha virt. eigenvalues --    4.00982   4.01623   4.03163   4.07577   4.08891
 Alpha virt. eigenvalues --    4.09660   4.09819   4.10284   4.10454   4.11898
 Alpha virt. eigenvalues --    4.14053   4.15803   4.16477   4.17101   4.17984
 Alpha virt. eigenvalues --    4.18832   4.18986   4.22372   4.23507   4.26917
 Alpha virt. eigenvalues --    4.28363   4.28927   4.29679   4.31766   4.33748
 Alpha virt. eigenvalues --    4.38051   4.41337   4.42519   4.43668   4.45476
 Alpha virt. eigenvalues --    4.46911   4.48266   4.52184   4.53106   4.55380
 Alpha virt. eigenvalues --    4.57205   4.57473   4.57664   4.59764   4.60660
 Alpha virt. eigenvalues --    4.62481   4.67534   4.71945   4.77478   4.78038
 Alpha virt. eigenvalues --    4.78964   4.80572   4.80940   4.82921   4.83830
 Alpha virt. eigenvalues --    4.83934   4.84707   4.84840   4.85345   4.87264
 Alpha virt. eigenvalues --    4.87976   4.88092   4.88483   4.88766   4.89406
 Alpha virt. eigenvalues --    4.89644   4.91011   4.92138   4.93716   5.04511
 Alpha virt. eigenvalues --    5.14289   5.15358   5.20233   5.26048   5.27232
 Alpha virt. eigenvalues --    5.33461   5.34030   5.34818   5.40509   5.42270
 Alpha virt. eigenvalues --    5.46226   5.53011   5.54032   5.55580   5.60186
 Alpha virt. eigenvalues --    5.60380   5.60735   5.63419   5.64177   5.69744
 Alpha virt. eigenvalues --    5.71822   5.76647   5.87406   5.92924   5.93770
 Alpha virt. eigenvalues --    5.94500   5.96213   5.96954   6.01450   6.03961
 Alpha virt. eigenvalues --    6.06121   6.18396   6.93283   6.94563   8.98440
 Alpha virt. eigenvalues --   18.55120  18.68618  18.93642  24.95804  24.98516
 Alpha virt. eigenvalues --   25.51868  25.53009  25.56149  25.58462  25.82517
 Alpha virt. eigenvalues --   25.83263  25.86766  25.87387  26.23843  26.25446
 Alpha virt. eigenvalues --   37.04073 192.79967
          Condensed to atoms (all electrons):
              1          2          3          4          5          6
     1  C    9.090116  -1.197501   0.308323  -0.051836  -1.698498   0.250663
     2  C   -1.197501   8.016676   0.005681  -0.000214  -0.991564  -0.870097
     3  C    0.308323   0.005681   5.554115   0.428264  -0.719980   0.432558
     4  H   -0.051836  -0.000214   0.428264   0.505354  -0.003447  -0.012682
     5  C   -1.698498  -0.991564  -0.719980  -0.003447   9.174760   0.269915
     6  C    0.250663  -0.870097   0.432558  -0.012682   0.269915   5.378537
     7  H   -0.009068  -0.065107  -0.000033   0.000057   0.464203   0.008130
     8  H   -0.007179   0.011695  -0.021578  -0.006509  -0.005874   0.408870
     9  C   -0.750779   0.352872   0.179716   0.004786  -0.049206   0.343072
    10  H   -0.007331   0.000932   0.006053  -0.000157  -0.039128  -0.018142
    11  H    0.438570  -0.052019  -0.025202  -0.006815  -0.008216   0.007854
    12  N   -0.035974   0.323367   0.013477  -0.000370  -0.214540  -0.003020
    13  S   -0.098385  -0.110156   0.076075  -0.000103  -0.082330  -0.021535
    14  C    0.086440  -0.223807  -0.084127   0.000273   0.283420   0.039533
    15  C   -0.083760   0.030565  -0.008968  -0.000011   0.217854   0.021633
    16  C    0.002910   0.025116   0.082568  -0.000140  -0.414791  -0.047792
    17  H   -0.000199   0.000947   0.000135   0.000000  -0.002336  -0.000103
    18  H   -0.004206   0.005755   0.000282   0.000001  -0.001300  -0.000553
    19  C    0.022086   0.041419  -0.007744   0.000001   0.010506   0.002646
    20  C    0.015634  -0.002016  -0.001913   0.000027   0.020419  -0.013327
    21  H    0.000008   0.000200   0.000006   0.000000  -0.000310  -0.000004
    22  H   -0.000109   0.000519   0.000040   0.000000  -0.000445  -0.000037
    23  C   -0.008643  -0.009606   0.004103   0.000000   0.000713   0.000643
    24  H   -0.000005   0.000063  -0.000002   0.000000  -0.000054  -0.000002
    25  H    0.009973   0.078849  -0.000982   0.000000  -0.062492  -0.002583
              7          8          9         10         11         12
     1  C   -0.009068  -0.007179  -0.750779  -0.007331   0.438570  -0.035974
     2  C   -0.065107   0.011695   0.352872   0.000932  -0.052019   0.323367
     3  C   -0.000033  -0.021578   0.179716   0.006053  -0.025202   0.013477
     4  H    0.000057  -0.006509   0.004786  -0.000157  -0.006815  -0.000370
     5  C    0.464203  -0.005874  -0.049206  -0.039128  -0.008216  -0.214540
     6  C    0.008130   0.408870   0.343072  -0.018142   0.007854  -0.003020
     7  H    0.481235  -0.000169  -0.032646  -0.006738   0.000095  -0.006510
     8  H   -0.000169   0.507538  -0.019997  -0.006658  -0.000161   0.000170
     9  C   -0.032646  -0.019997   5.794204   0.423325   0.000283  -0.012854
    10  H   -0.006738  -0.006658   0.423325   0.506226   0.000063  -0.000394
    11  H    0.000095  -0.000161   0.000283   0.000063   0.487105  -0.005653
    12  N   -0.006510   0.000170  -0.012854  -0.000394  -0.005653   7.067055
    13  S    0.006953   0.000040   0.046726  -0.000216   0.001545   0.190104
    14  C   -0.002725   0.000042  -0.047685   0.000074   0.000101   0.007395
    15  C   -0.001790  -0.000027  -0.024415  -0.000170  -0.000253   0.005589
    16  C    0.004921  -0.000056   0.106973   0.000152   0.000791   0.023987
    17  H    0.000018   0.000000   0.000054   0.000000  -0.000001   0.000669
    18  H    0.000028   0.000000   0.000952   0.000004  -0.000009  -0.000162
    19  C   -0.002191   0.000002  -0.016389  -0.000050  -0.000037  -0.006683
    20  C   -0.001723   0.000004   0.003295  -0.000038  -0.000061  -0.012884
    21  H    0.000002   0.000000   0.000008   0.000000   0.000000   0.000051
    22  H    0.000009   0.000000  -0.000191   0.000001   0.000000   0.000027
    23  C    0.000871  -0.000007   0.001398   0.000089   0.000009   0.008278
    24  H   -0.000001   0.000000   0.000002   0.000000   0.000000  -0.000008
    25  H    0.000647  -0.000001  -0.005529  -0.000003   0.000307   0.306264
             13         14         15         16         17         18
     1  C   -0.098385   0.086440  -0.083760   0.002910  -0.000199  -0.004206
     2  C   -0.110156  -0.223807   0.030565   0.025116   0.000947   0.005755
     3  C    0.076075  -0.084127  -0.008968   0.082568   0.000135   0.000282
     4  H   -0.000103   0.000273  -0.000011  -0.000140   0.000000   0.000001
     5  C   -0.082330   0.283420   0.217854  -0.414791  -0.002336  -0.001300
     6  C   -0.021535   0.039533   0.021633  -0.047792  -0.000103  -0.000553
     7  H    0.006953  -0.002725  -0.001790   0.004921   0.000018   0.000028
     8  H    0.000040   0.000042  -0.000027  -0.000056   0.000000   0.000000
     9  C    0.046726  -0.047685  -0.024415   0.106973   0.000054   0.000952
    10  H   -0.000216   0.000074  -0.000170   0.000152   0.000000   0.000004
    11  H    0.001545   0.000101  -0.000253   0.000791  -0.000001  -0.000009
    12  N    0.190104   0.007395   0.005589   0.023987   0.000669  -0.000162
    13  S   16.750617  -1.795512   0.283413   1.136378  -0.013307  -0.017201
    14  C   -1.795512  10.968383  -1.548362  -2.729681   0.024780   0.025354
    15  C    0.283413  -1.548362  11.231324  -4.137905   0.347151   0.016580
    16  C    1.136378  -2.729681  -4.137905  13.108803   0.035613   0.355133
    17  H   -0.013307   0.024780   0.347151   0.035613   0.492616  -0.000058
    18  H   -0.017201   0.025354   0.016580   0.355133  -0.000058   0.476472
    19  C   -0.132460  -0.005496   0.691854  -1.334534  -0.047249   0.003679
    20  C   -0.050512   0.304279  -0.598737  -0.101766  -0.000682  -0.025798
    21  H    0.002505   0.011981  -0.033068   0.000525  -0.006257   0.000058
    22  H    0.002006   0.009249  -0.003760  -0.025072   0.000065  -0.006329
    23  C    0.105987  -1.160481   0.285673   0.607064   0.002810  -0.001410
    24  H    0.000740   0.011843  -0.003075   0.002127  -0.000160  -0.000149
    25  H   -0.017359   0.012068  -0.023139   0.012340   0.000082  -0.000006
             19         20         21         22         23         24
     1  C    0.022086   0.015634   0.000008  -0.000109  -0.008643  -0.000005
     2  C    0.041419  -0.002016   0.000200   0.000519  -0.009606   0.000063
     3  C   -0.007744  -0.001913   0.000006   0.000040   0.004103  -0.000002
     4  H    0.000001   0.000027   0.000000   0.000000   0.000000   0.000000
     5  C    0.010506   0.020419  -0.000310  -0.000445   0.000713  -0.000054
     6  C    0.002646  -0.013327  -0.000004  -0.000037   0.000643  -0.000002
     7  H   -0.002191  -0.001723   0.000002   0.000009   0.000871  -0.000001
     8  H    0.000002   0.000004   0.000000   0.000000  -0.000007   0.000000
     9  C   -0.016389   0.003295   0.000008  -0.000191   0.001398   0.000002
    10  H   -0.000050  -0.000038   0.000000   0.000001   0.000089   0.000000
    11  H   -0.000037  -0.000061   0.000000   0.000000   0.000009   0.000000
    12  N   -0.006683  -0.012884   0.000051   0.000027   0.008278  -0.000008
    13  S   -0.132460  -0.050512   0.002505   0.002006   0.105987   0.000740
    14  C   -0.005496   0.304279   0.011981   0.009249  -1.160481   0.011843
    15  C    0.691854  -0.598737  -0.033068  -0.003760   0.285673  -0.003075
    16  C   -1.334534  -0.101766   0.000525  -0.025072   0.607064   0.002127
    17  H   -0.047249  -0.000682  -0.006257   0.000065   0.002810  -0.000160
    18  H    0.003679  -0.025798   0.000058  -0.006329  -0.001410  -0.000149
    19  C    6.069398   0.316885   0.404623   0.000670   0.304562  -0.029740
    20  C    0.316885   5.986844  -0.001366   0.404830   0.239048  -0.034265
    21  H    0.404623  -0.001366   0.504505  -0.000131  -0.020074  -0.006627
    22  H    0.000670   0.404830  -0.000131   0.503935  -0.021476  -0.006771
    23  C    0.304562   0.239048  -0.020074  -0.021476   5.384764   0.418458
    24  H   -0.029740  -0.034265  -0.006627  -0.006771   0.418458   0.503939
    25  H   -0.001530   0.000202  -0.000002   0.000000  -0.000227   0.000000
             25
     1  C    0.009973
     2  C    0.078849
     3  C   -0.000982
     4  H    0.000000
     5  C   -0.062492
     6  C   -0.002583
     7  H    0.000647
     8  H   -0.000001
     9  C   -0.005529
    10  H   -0.000003
    11  H    0.000307
    12  N    0.306264
    13  S   -0.017359
    14  C    0.012068
    15  C   -0.023139
    16  C    0.012340
    17  H    0.000082
    18  H   -0.000006
    19  C   -0.001530
    20  C    0.000202
    21  H   -0.000002
    22  H    0.000000
    23  C   -0.000227
    24  H    0.000000
    25  H    0.376301
 Mulliken atomic charges:
              1
     1  C   -0.271247
     2  C    0.627431
     3  C   -0.220866
     4  H    0.143522
     5  C   -0.147278
     6  C   -0.174179
     7  H    0.161532
     8  H    0.139853
     9  C   -0.297973
    10  H    0.142105
    11  H    0.161704
    12  N   -0.647380
    13  S   -0.264013
    14  C    1.812660
    15  C   -0.664196
    16  C   -0.713662
    17  H    0.165414
    18  H    0.172885
    19  C   -0.284228
    20  C   -0.446379
    21  H    0.143367
    22  H    0.142970
    23  C   -0.142547
    24  H    0.143689
    25  H    0.316819
 Sum of Mulliken atomic charges =   0.00000
 Mulliken charges with hydrogens summed into heavy atoms:
              1
     1  C   -0.109543
     2  C    0.627431
     3  C   -0.077345
     5  C    0.014254
     6  C   -0.034326
     9  C   -0.155868
    12  N   -0.330561
    13  S   -0.264013
    14  C    1.812660
    15  C   -0.498783
    16  C   -0.540778
    19  C   -0.140860
    20  C   -0.303409
    23  C    0.001141
 Sum of Mulliken charges with hydrogens summed into heavy atoms =   0.00000
 Electronic spatial extent (au):  <R**2>=           3611.6774
 Charge=              0.0000 electrons
 Dipole moment (field-independent basis, Debye):
    X=              0.3698    Y=             -2.2760    Z=              0.4372  Tot=              2.3470
 Quadrupole moment (field-independent basis, Debye-Ang):
   XX=            -80.7380   YY=            -86.8116   ZZ=            -88.1261
   XY=             -1.2752   XZ=              6.5357   YZ=              2.4484
 Traceless Quadrupole moment (field-independent basis, Debye-Ang):
   XX=              4.4873   YY=             -1.5864   ZZ=             -2.9009
   XY=             -1.2752   XZ=              6.5357   YZ=              2.4484
 Octapole moment (field-independent basis, Debye-Ang**2):
  XXX=              3.1715  YYY=            -15.5226  ZZZ=              5.7038  XYY=             -1.8887
  XXY=            -20.2089  XXZ=             -2.2785  XZZ=              1.9831  YZZ=              7.2107
  YYZ=              6.5573  XYZ=              7.8842
 Hexadecapole moment (field-independent basis, Debye-Ang**3):
 XXXX=          -3499.2407 YYYY=          -1027.0740 ZZZZ=           -419.5112 XXXY=            -17.2395
 XXXZ=            202.4956 YYYX=            -13.8813 YYYZ=             21.9118 ZZZX=             12.1720
 ZZZY=             20.8317 XXYY=           -707.6467 XXZZ=           -680.2568 YYZZ=           -217.3086
 XXYZ=             -0.7095 YYXZ=             -6.1343 ZZXY=             -3.9675
 N-N= 8.756185523774D+02 E-N=-3.898551893687D+03  KE= 9.119559555709D+02
 Calling FoFJK, ICntrl=      2127 FMM=F ISym2X=0 I1Cent= 0 IOpClX= 0 NMat=1 NMatS=1 NMatT=0.
 ***** Axes restored to original set *****
 -------------------------------------------------------------------
 Center     Atomic                   Forces (Hartrees/Bohr)
 Number     Number              X              Y              Z
 -------------------------------------------------------------------
      1        6           0.013610327   -0.016303329   -0.002469738
      2        6           0.040600137   -0.061316634   -0.035673151
      3        6           0.002501695    0.004627304   -0.002765552
      4        1           0.000489642   -0.000765224   -0.000063079
      5        6           0.012678102   -0.012149985   -0.003925130
      6        6          -0.001366262    0.000550245    0.000560922
      7        1          -0.000407268   -0.000707176    0.000017624
      8        1          -0.000079793    0.000002111   -0.000034747
      9        6          -0.001313249   -0.002144852    0.004082999
     10        1           0.000578583   -0.000430063   -0.000273536
     11        1           0.000360905   -0.000042526   -0.000719805
     12        7          -0.017401288    0.099084209    0.111485842
     13       16          -0.046830571   -0.007530319   -0.071402533
     14        6          -0.007494088   -0.006300961   -0.002625375
     15        6           0.001866385    0.000631871   -0.001127793
     16        6          -0.000802729    0.000935696    0.000390410
     17        1          -0.000265926    0.000144562    0.000242068
     18        1          -0.000329792    0.000027685   -0.000585644
     19        6          -0.000041430   -0.001245658   -0.000613500
     20        6           0.000465542    0.000061707    0.001007594
     21        1           0.000022212    0.000063815   -0.000015865
     22        1           0.000020995   -0.000042418    0.000000909
     23        6          -0.000587610    0.000051338    0.000378537
     24        1          -0.000033691    0.000057984   -0.000050499
     25        1           0.003759171    0.002740618    0.004179041
 -------------------------------------------------------------------
 Cartesian Forces:  Max     0.111485842 RMS     0.022383266

 GradGradGradGradGradGradGradGradGradGradGradGradGradGradGradGradGradGrad
 Berny optimization.
 Internal  Forces:  Max     0.117645060 RMS     0.014429863
 Search for a local minimum.
 Step number   1 out of a maximum of  132
 All quantities printed in internal units (Hartrees-Bohrs-Radians)
 Mixed Optimization -- RFO/linear search
 Second derivative matrix not updated -- first step.
     Eigenvalues ---    0.00230   0.00230   0.00230   0.00639   0.01655
     Eigenvalues ---    0.01990   0.02284   0.02284   0.02305   0.02305
     Eigenvalues ---    0.02310   0.02310   0.02316   0.02317   0.02323
     Eigenvalues ---    0.02323   0.02329   0.02329   0.02334   0.02334
     Eigenvalues ---    0.02342   0.02343   0.12869   0.14667   0.16000
     Eigenvalues ---    0.16000   0.16000   0.16000   0.16000   0.16000
     Eigenvalues ---    0.16000   0.16000   0.16000   0.16000   0.16000
     Eigenvalues ---    0.22000   0.22000   0.22000   0.22000   0.22000
     Eigenvalues ---    0.23476   0.23479   0.24976   0.24977   0.25000
     Eigenvalues ---    0.27784   0.36669   0.36669   0.36688   0.36688
     Eigenvalues ---    0.36690   0.36690   0.36792   0.36793   0.36810
     Eigenvalues ---    0.36811   0.43836   0.43837   0.43862   0.43865
     Eigenvalues ---    0.47688   0.48160   0.48167   0.48380   0.48383
     Eigenvalues ---    0.48751   0.48752   0.49066   0.490691000.00000
     Eigenvalues --- 1000.000001000.000001000.000001000.000001000.00000
     Eigenvalues --- 1000.000001000.000001000.000001000.000001000.00000
     Eigenvalues --- 1000.000001000.000001000.000001000.000001000.00000
     Eigenvalues --- 1000.000001000.000001000.000001000.000001000.00000
     Eigenvalues --- 1000.000001000.000001000.000001000.000001000.00000
     Eigenvalues --- 1000.000001000.000001000.000001000.000001000.00000
     Eigenvalues --- 1000.000001000.000001000.000001000.000001000.00000
     Eigenvalues --- 1000.000001000.000001000.000001000.000001000.00000
     Eigenvalues --- 1000.000001000.000001000.000001000.000001000.00000
     Eigenvalues --- 1000.000001000.000001000.000001000.000001000.00000
     Eigenvalues --- 1000.000001000.00000
 RFO step:  Lambda=-1.01450842D-01 EMin= 2.30000000D-03
 Linear search not attempted -- first point.
 Maximum step size (   0.300) exceeded in Quadratic search.
    -- Step size scaled by   0.468
 Iteration  1 RMS(Cart)=  0.05693648 RMS(Int)=  0.00213013
 Iteration  2 RMS(Cart)=  0.00574684 RMS(Int)=  0.00001474
 Iteration  3 RMS(Cart)=  0.00000855 RMS(Int)=  0.00001384
 Iteration  4 RMS(Cart)=  0.00000000 RMS(Int)=  0.00001384
 Variable       Old X    -DE/DX   Delta X   Delta X   Delta X     New X
                                 (Linear)    (Quad)   (Total)
    R1        2.62074  -0.01446   0.00000  -0.01202  -0.01199   2.60875
    R2        2.60635   0.00095   0.00000   0.00074   0.00074   2.60710
    R3        2.02862  -0.00033   0.00000  -0.00032  -0.00032   2.02829
    R4        2.61517  -0.01299   0.00000  -0.01072  -0.01070   2.60447
    R5        3.36307  -0.11765   0.00000  -0.22178  -0.22178   3.14129
    R6        2.03019  -0.00029   0.00000  -0.00028  -0.00028   2.02990
    R7        2.61556   0.00046   0.00000   0.00072   0.00069   2.61626
    R8        2.02832  -0.00041   0.00000  -0.00041  -0.00041   2.02790
    R9        2.61434   0.00016   0.00000   0.00013   0.00014   2.61448
   R10        2.03049   0.00005   0.00000   0.00005   0.00005   2.03053
   R11        2.60794   0.00116   0.00000   0.00127   0.00125   2.60919
   R12        2.03016  -0.00020   0.00000  -0.00020  -0.00020   2.02996
   R13        3.90161  -0.09165   0.00000  -0.18628  -0.18628   3.71534
   R14        1.88973  -0.00501   0.00000  -0.00405  -0.00405   1.88567
   R15        3.36313  -0.00807   0.00000  -0.00996  -0.00996   3.35317
   R16        2.62089   0.00130   0.00000   0.00106   0.00106   2.62195
   R17        2.61506   0.00070   0.00000   0.00058   0.00058   2.61564
   R18        2.02860  -0.00026   0.00000  -0.00026  -0.00026   2.02834
   R19        2.60632  -0.00080   0.00000  -0.00063  -0.00063   2.60569
   R20        2.02833  -0.00014   0.00000  -0.00014  -0.00014   2.02819
   R21        2.61439  -0.00021   0.00000  -0.00017  -0.00017   2.61422
   R22        2.03019   0.00002   0.00000   0.00002   0.00002   2.03021
   R23        2.61560   0.00089   0.00000   0.00069   0.00069   2.61630
   R24        2.03016  -0.00004   0.00000  -0.00004  -0.00004   2.03012
   R25        2.60790   0.00024   0.00000   0.00017   0.00017   2.60807
   R26        2.03049   0.00003   0.00000   0.00003   0.00003   2.03052
    A1        2.09584  -0.00848   0.00000  -0.01266  -0.01264   2.08320
    A2        2.08883   0.00357   0.00000   0.00513   0.00512   2.09395
    A3        2.09852   0.00491   0.00000   0.00753   0.00752   2.10604
    A4        2.08945   0.01721   0.00000   0.02210   0.02214   2.11159
    A5        2.10578  -0.01153   0.00000  -0.01486  -0.01489   2.09089
    A6        2.08714  -0.00561   0.00000  -0.00699  -0.00702   2.08013
    A7        2.09082  -0.00109   0.00000  -0.00236  -0.00235   2.08847
    A8        2.09594   0.00043   0.00000   0.00158   0.00156   2.09750
    A9        2.09640   0.00066   0.00000   0.00078   0.00079   2.09719
   A10        2.08898   0.00359   0.00000   0.00519   0.00518   2.09416
   A11        2.09600  -0.00823   0.00000  -0.01228  -0.01225   2.08374
   A12        2.09821   0.00465   0.00000   0.00709   0.00707   2.10528
   A13        2.09400   0.00046   0.00000  -0.00013  -0.00011   2.09389
   A14        2.09392  -0.00096   0.00000   0.00022   0.00018   2.09410
   A15        2.09526   0.00049   0.00000  -0.00009  -0.00006   2.09519
   A16        2.09518   0.00003   0.00000   0.00103   0.00101   2.09620
   A17        2.09002  -0.00077   0.00000  -0.00187  -0.00186   2.08816
   A18        2.09798   0.00074   0.00000   0.00083   0.00084   2.09883
   A19        1.82323   0.03418   0.00000   0.04974   0.04973   1.87295
   A20        2.22998  -0.01404   0.00000  -0.01942  -0.01942   2.21056
   A21        2.22998  -0.02014   0.00000  -0.03032  -0.03032   2.19965
   A22        1.82302  -0.01472   0.00000  -0.01959  -0.01959   1.80343
   A23        2.10526   0.00111   0.00000   0.00143   0.00143   2.10670
   A24        2.08763  -0.00136   0.00000  -0.00185  -0.00185   2.08578
   A25        2.08949   0.00024   0.00000   0.00039   0.00039   2.08988
   A26        2.08883  -0.00023   0.00000  -0.00046  -0.00046   2.08837
   A27        2.09579  -0.00011   0.00000  -0.00012  -0.00012   2.09567
   A28        2.09857   0.00035   0.00000   0.00058   0.00058   2.09915
   A29        2.08906  -0.00009   0.00000  -0.00021  -0.00021   2.08886
   A30        2.09595  -0.00020   0.00000  -0.00025  -0.00025   2.09571
   A31        2.09817   0.00028   0.00000   0.00045   0.00045   2.09862
   A32        2.09081   0.00024   0.00000   0.00039   0.00039   2.09120
   A33        2.09595  -0.00036   0.00000  -0.00054  -0.00054   2.09540
   A34        2.09640   0.00011   0.00000   0.00015   0.00015   2.09656
   A35        2.08997   0.00013   0.00000   0.00020   0.00020   2.09017
   A36        2.09523  -0.00026   0.00000  -0.00040  -0.00040   2.09482
   A37        2.09799   0.00013   0.00000   0.00020   0.00020   2.09819
   A38        2.09391   0.00068   0.00000   0.00093   0.00093   2.09484
   A39        2.09402  -0.00032   0.00000  -0.00043  -0.00043   2.09359
   A40        2.09525  -0.00036   0.00000  -0.00049  -0.00049   2.09475
    D1       -0.01089  -0.00012   0.00000  -0.00002  -0.00001  -0.01090
    D2       -3.10895  -0.00170   0.00000  -0.00670  -0.00670  -3.11565
    D3        3.13098   0.00020   0.00000   0.00111   0.00112   3.13210
    D4        0.03293  -0.00139   0.00000  -0.00557  -0.00558   0.02736
    D5       -3.13981   0.00004   0.00000   0.00013   0.00012  -3.13969
    D6        0.00928  -0.00002   0.00000  -0.00008  -0.00009   0.00919
    D7        0.00150  -0.00027   0.00000  -0.00101  -0.00101   0.00049
    D8       -3.13260  -0.00033   0.00000  -0.00122  -0.00122  -3.13383
    D9       -3.13771  -0.00011   0.00000  -0.00090  -0.00091  -3.13862
   D10        0.00473   0.00025   0.00000   0.00048   0.00046   0.00519
   D11       -0.03919   0.00130   0.00000   0.00550   0.00554  -0.03365
   D12        3.10325   0.00166   0.00000   0.00688   0.00691   3.11016
   D13       -1.38941   0.00044   0.00000   0.00083   0.00078  -1.38862
   D14        1.75219   0.00177   0.00000   0.00681   0.00678   1.75896
   D15        1.79567  -0.00171   0.00000  -0.00656  -0.00652   1.78915
   D16       -1.34592  -0.00038   0.00000  -0.00058  -0.00053  -1.34645
   D17        3.13625   0.00001   0.00000   0.00004   0.00004   3.13628
   D18       -0.00146  -0.00011   0.00000  -0.00044  -0.00044  -0.00190
   D19        0.00217  -0.00005   0.00000  -0.00016  -0.00016   0.00201
   D20       -3.13554  -0.00016   0.00000  -0.00063  -0.00064  -3.13617
   D21        0.00305  -0.00025   0.00000  -0.00082  -0.00081   0.00225
   D22       -3.14042  -0.00013   0.00000  -0.00045  -0.00044  -3.14086
   D23       -3.13769   0.00012   0.00000   0.00056   0.00057  -3.13711
   D24        0.00202   0.00023   0.00000   0.00094   0.00094   0.00296
   D25       -0.00471   0.00021   0.00000   0.00084   0.00084  -0.00387
   D26        3.13877   0.00010   0.00000   0.00046   0.00047   3.13925
   D27        3.14077   0.00010   0.00000   0.00036   0.00036   3.14113
   D28        0.00107  -0.00001   0.00000  -0.00001  -0.00001   0.00107
   D29       -1.41900  -0.00013   0.00000  -0.00056  -0.00058  -1.41958
   D30        1.72259  -0.00145   0.00000  -0.00654  -0.00652   1.71607
   D31       -1.38969  -0.00071   0.00000  -0.00306  -0.00306  -1.39274
   D32        1.79499  -0.00053   0.00000  -0.00233  -0.00233   1.79265
   D33        0.03259   0.00027   0.00000   0.00096   0.00096   0.03355
   D34       -3.10930   0.00033   0.00000   0.00120   0.00120  -3.10810
   D35        3.13105   0.00004   0.00000   0.00018   0.00018   3.13124
   D36       -0.01083   0.00011   0.00000   0.00042   0.00042  -0.01041
   D37       -0.03884  -0.00045   0.00000  -0.00176  -0.00176  -0.04060
   D38        3.10356  -0.00052   0.00000  -0.00202  -0.00202   3.10155
   D39       -3.13775  -0.00029   0.00000  -0.00107  -0.00107  -3.13881
   D40        0.00466  -0.00036   0.00000  -0.00133  -0.00133   0.00333
   D41       -3.13982   0.00001   0.00000   0.00004   0.00004  -3.13977
   D42        0.00926   0.00012   0.00000   0.00043   0.00043   0.00969
   D43        0.00149   0.00008   0.00000   0.00028   0.00028   0.00177
   D44       -3.13262   0.00018   0.00000   0.00067   0.00067  -3.13195
   D45       -3.14041   0.00013   0.00000   0.00050   0.00050  -3.13992
   D46        0.00308   0.00037   0.00000   0.00139   0.00139   0.00447
   D47        0.00200   0.00006   0.00000   0.00023   0.00023   0.00223
   D48       -3.13769   0.00031   0.00000   0.00112   0.00112  -3.13657
   D49       -0.00149  -0.00010   0.00000  -0.00037  -0.00037  -0.00187
   D50        3.13629  -0.00006   0.00000  -0.00020  -0.00020   3.13608
   D51       -3.13557   0.00000   0.00000   0.00001   0.00001  -3.13556
   D52        0.00220   0.00005   0.00000   0.00018   0.00018   0.00239
   D53       -0.00469  -0.00015   0.00000  -0.00054  -0.00054  -0.00522
   D54        3.14072  -0.00019   0.00000  -0.00071  -0.00071   3.14001
   D55        3.13882   0.00010   0.00000   0.00036   0.00036   3.13918
   D56        0.00104   0.00005   0.00000   0.00019   0.00019   0.00123
         Item               Value     Threshold  Converged?
 Maximum Force            0.117645     0.000450     NO 
 RMS     Force            0.014430     0.000300     NO 
 Maximum Displacement     0.187179     0.001800     NO 
 RMS     Displacement     0.061124     0.001200     NO 
 Predicted change in Energy=-4.092090D-02
 GradGradGradGradGradGradGradGradGradGradGradGradGradGradGradGradGradGrad

                          Input orientation:                          
 ---------------------------------------------------------------------
 Center     Atomic      Atomic             Coordinates (Angstroms)
 Number     Number       Type             X           Y           Z
 ---------------------------------------------------------------------
      1          6           0       -2.790280   -0.617665    0.516257
      2          6           0       -1.757159   -0.395918   -0.372134
      3          6           0       -3.699717    0.390403    0.761329
      4          1           0       -4.504474    0.223721    1.453025
      5          6           0       -1.629755    0.811013   -1.025279
      6          6           0       -3.580938    1.607715    0.112653
      7          1           0       -0.821966    0.965111   -1.714714
      8          1           0       -4.293957    2.388864    0.302349
      9          6           0       -2.548805    1.815792   -0.780543
     10          1           0       -2.453760    2.757861   -1.287887
     11          1           0       -2.879035   -1.566852    1.009406
     12          7           0       -0.676748   -1.614949   -0.703678
     13         16           0        0.608870   -1.677533    0.782494
     14          6           0        1.754769   -0.381752    0.386972
     15          6           0        2.760121   -0.585805   -0.547223
     16          6           0        1.674537    0.827070    1.056409
     17          1           0        2.826808   -1.527157   -1.058584
     18          1           0        0.898020    0.982972    1.780721
     19          6           0        3.667701    0.416934   -0.815748
     20          6           0        2.591363    1.828532    0.791327
     21          1           0        4.443497    0.255086   -1.541113
     22          1           0        2.525277    2.764216    1.315005
     23          6           0        3.584484    1.625373   -0.145264
     24          1           0        4.295684    2.403799   -0.352154
     25          1           0       -0.672856   -2.204984   -1.508388
 ---------------------------------------------------------------------
                    Distance matrix (angstroms):
                    1          2          3          4          5
     1  C    0.000000
     2  C    1.380488   0.000000
     3  C    1.379616   2.382556   0.000000
     4  H    2.126952   3.356023   1.074178   0.000000
     5  C    2.400890   1.378228   2.766519   3.840692   0.000000
     6  C    2.395904   2.752405   1.384463   2.136576   2.395149
     7  H    3.369966   2.128263   3.839600   4.913765   1.073121
     8  H    3.368386   3.826916   2.134861   2.460938   3.369004
     9  C    2.767981   2.384358   2.394515   3.368702   1.383522
    10  H    3.842181   3.357108   3.369948   4.259095   2.130297
    11  H    1.073326   2.130339   2.136799   2.458658   3.369701
    12  N    2.636253   1.662301   3.912291   4.762725   2.626202
    13  S    3.570493   2.928105   4.779198   5.496423   3.804253
    14  C    4.553003   3.593060   5.521575   6.378181   3.856441
    15  C    5.651456   4.524659   6.662943   7.578302   4.631484
    16  C    4.723729   3.913180   5.400034   6.221054   3.905384
    17  H    5.904149   4.771129   7.041637   7.944900   5.032802
    18  H    4.214791   3.685932   4.746523   5.465417   3.780588
    19  C    6.674590   5.503329   7.534370   8.483461   5.316224
    20  C    5.917907   5.021102   6.453434   7.305078   4.706723
    21  H    7.571129   6.343379   8.463539   9.435678   6.120419
    22  H    6.350611   5.583202   6.685215   7.475999   5.153272
    23  C    6.790173   5.715789   7.443565   8.363636   5.350318
    24  H    7.752050   6.669013   8.319859   9.244144   6.172592
    25  H    3.332004   2.395727   4.587978   5.417551   3.200826
                    6          7          8          9         10
     6  C    0.000000
     7  H    3.371073   0.000000
     8  H    1.074511   4.260321   0.000000
     9  C    1.380722   2.139698   2.132281   0.000000
    10  H    2.134216   2.461480   2.459946   1.074209   0.000000
    11  H    3.372641   4.250081   4.260238   3.841256   4.915440
    12  N    4.414326   2.774885   5.488789   3.909027   4.756105
    13  S    5.366193   3.907288   6.387788   4.961584   5.773984
    14  C    5.701140   3.587574   6.653613   4.971222   5.511264
    15  C    6.742106   4.074276   7.702626   5.831536   6.238048
    16  C    5.396304   3.732386   6.215362   4.710476   5.125087
    17  H    7.228999   4.467153   8.239700   6.336390   6.804289
    18  H    4.820146   3.895732   5.578417   4.374273   4.878627
    19  C    7.404232   4.611480   8.278083   6.372048   6.570779
    20  C    6.213426   4.321638   6.925367   5.375153   5.535346
    21  H    8.303981   5.315955   9.181202   7.204621   7.341673
    22  H    6.330008   4.860042   6.904224   5.571098   5.618353
    23  C    7.170084   4.723974   7.927996   6.169042   6.248881
    24  H    7.930383   5.487872   8.614554   6.883045   6.823193
    25  H    5.061757   3.180299   6.123282   4.496175   5.277316
                   11         12         13         14         15
    11  H    0.000000
    12  N    2.790526   0.000000
    13  S    3.497030   1.966071   0.000000
    14  C    4.823279   2.936421   1.774421   0.000000
    15  C    5.931748   3.591057   2.754614   1.387476   0.000000
    16  C    5.144715   3.819673   2.735638   1.384137   2.397153
    17  H    6.069168   3.522580   2.886421   2.133272   1.073351
    18  H    4.621977   3.924452   2.856283   2.130500   3.368651
    19  C    7.079996   4.797432   4.037031   2.396611   1.378874
    20  C    6.442161   4.977263   4.027760   2.397655   2.765722
    21  H    7.965179   5.515001   4.882471   3.369322   2.128066
    22  H    6.932397   5.788361   4.866756   3.369279   3.840011
    23  C    7.300729   5.382343   4.541388   2.767613   2.393836
    24  H    8.312431   6.403045   5.615808   3.842116   3.366562
    25  H    3.407891   0.997855   2.677530   3.579096   3.915471
                   16         17         18         19         20
    16  C    0.000000
    17  H    3.367983   0.000000
    18  H    1.073272   4.252367   0.000000
    19  C    2.765120   2.132033   3.838383   0.000000
    20  C    1.383388   3.839043   2.135716   2.394536   0.000000
    21  H    3.839456   2.454162   4.912719   1.074340   3.368443
    22  H    2.131470   4.913322   2.457171   3.369715   1.074296
    23  C    2.393575   3.368483   3.367371   1.384485   1.380132
    24  H    3.367571   4.255474   4.255823   2.134693   2.131477
    25  H    4.613219   3.592968   4.842412   5.118070   5.675656
                   21         22         23         24         25
    21  H    0.000000
    22  H    4.258252   0.000000
    23  C    2.136348   2.133370   0.000000
    24  H    2.460170   2.458386   1.074503   0.000000
    25  H    5.677155   6.549240   5.886824   6.874893   0.000000
 Stoichiometry    C12H11NS
 Framework group  C1[X(C12H11NS)]
 Deg. of freedom    69
 Full point group                 C1      NOp   1
 Largest Abelian subgroup         C1      NOp   1
 Largest concise Abelian subgroup C1      NOp   1
                         Standard orientation:                         
 ---------------------------------------------------------------------
 Center     Atomic      Atomic             Coordinates (Angstroms)
 Number     Number       Type             X           Y           Z
 ---------------------------------------------------------------------
      1          6           0        2.830854   -0.802550   -0.367975
      2          6           0        1.790988   -0.497541    0.487241
      3          6           0        3.751365    0.173729   -0.688721
      4          1           0        4.561426   -0.057806   -1.355094
      5          6           0        1.667615    0.761817    1.033419
      6          6           0        3.636751    1.442980   -0.147793
      7          1           0        0.854436    0.980643    1.698582
      8          1           0        4.358348    2.199449   -0.396042
      9          6           0        2.597707    1.734773    0.713390
     10          1           0        2.505833    2.717518    1.137296
     11          1           0        2.916237   -1.791123   -0.777197
     12          7           0        0.696837   -1.675269    0.910369
     13         16           0       -0.574563   -1.854799   -0.578505
     14          6           0       -1.713033   -0.521034   -0.307347
     15          6           0       -2.729275   -0.636546    0.630203
     16          6           0       -1.615734    0.625397   -1.076803
     17          1           0       -2.809154   -1.530131    1.219445
     18          1           0       -0.830792    0.712682   -1.803550
     19          6           0       -3.630734    0.392536    0.802408
     20          6           0       -2.526415    1.652984   -0.908017
     21          1           0       -4.415016    0.299412    1.530720
     22          1           0       -2.447063    2.539873   -1.509051
     23          6           0       -3.530443    1.538472    0.031973
     24          1           0       -4.236875    2.337267    0.164026
     25          1           0        0.679900   -2.194220    1.762495
 ---------------------------------------------------------------------
 Rotational constants (GHZ):      1.1259832      0.3739995      0.3191613
 Standard basis: 6-311+G(2df,p) (5D, 7F)
 There are   550 symmetry adapted basis functions of A   symmetry.
 Integral buffers will be    131072 words long.
 Raffenetti 1 integral format.
 Two-electron integral symmetry is turned on.
   550 basis functions,   830 primitive gaussians,   620 cartesian basis functions
    53 alpha electrons       53 beta electrons
       nuclear repulsion energy       886.5957373538 Hartrees.
 NAtoms=   25 NActive=   25 NUniq=   25 SFac= 7.50D-01 NAtFMM=   80 NAOKFM=F Big=F
 One-electron integrals computed using PRISM.
 NBasis=   550 RedAO= T  NBF=   550
 NBsUse=   550 1.00D-06 NBFU=   550
 Initial guess read from the read-write file.
 B after Tr=     0.000000    0.000000    0.000000
         Rot=    1.000000    0.000000    0.000000    0.000000 Ang=   0.00 deg.
 Initial guess orbital symmetries:
       Occupied  (A) (A) (A) (A) (A) (A) (A) (A) (A) (A) (A) (A)
                 (A) (A) (A) (A) (A) (A) (A) (A) (A) (A) (A) (A)
                 (A) (A) (A) (A) (A) (A) (A) (A) (A) (A) (A) (A)
                 (A) (A) (A) (A) (A) (A) (A) (A) (A) (A) (A) (A)
[...]
 0000240,0.00000143,-0.00005246,0.00006679,0.00002650,-0.00002150,0.000
 03149,-0.00000190,-0.00000852,-0.00001050,-0.00001278,-0.00000216,-0.0
 0000014,-0.00000192,0.00001408,0.00001503,-0.00001348,-0.00000793,0.00
 000562,-0.00000011,0.00000151,-0.00001301,-0.00002273,-0.00047582,0.00
 009079,0.00056221,-0.00200384,0.00100583,-0.00100249,0.00023235,-0.018
 90653,-0.00946714,0.02449614,-0.15135364,-0.17575217,0.00656496,-0.001
 50208,0.00111548,-0.03023468,0.16877175,0.17679837,-0.00056089,0.00002
 059,-0.00023157,-0.00009962,-0.00000537,-0.00016992,0.00010464,-0.0001
 7547,0.00007520,-0.00002271,0.00000323,0.00000360,0.00010505,-0.000168
 81,0.00009212,-0.00002623,0.00013356,-0.00016004,-0.00000953,-0.000015
 94,0.00001172,0.00001164,-0.00001209,0.00000354,-0.00009765,0.00007262
 ,0.00015855,-0.00000170,-0.00000232,0.00001102,-0.00013499,-0.00015973
 ,0.00000981,0.00000027,-0.00049964,-0.00044257,-0.00014028,0.00119316,
 -0.00196143,0.00211951,-0.00207996,0.00041295,0.00356743,-0.00170398,0
 .00208921,-0.23555108,0.00250489,0.15929899,0.00014636,-0.00001613,-0.
 00002110,0.24320002,0.00005212,0.00009655,-0.00026394,-0.00017419,0.00
 017667,0.00004470,-0.00012956,0.00008791,0.00000584,0.00003784,0.00003
 067,-0.00001681,-0.00002110,0.00002735,0.00000056,0.00002663,-0.000159
 21,0.00013049,0.00001054,0.00000674,0.00001333,0.00002540,-0.00000440,
 0.00001469,0.00007100,-0.00008855,-0.00003606,0.00001241,-0.00000354,0
 .00000558,-0.00024214,-0.00009474,0.00001782,0.00013248,0.00015770,0.0
 0029104,0.00169279,0.00016763,0.00087899,0.02112946,0.00366320,-0.0180
 0499,-0.00164347,-0.00246580,-0.00616917,0.00080497,-0.06589388,-0.014
 09026,0.00114965,0.00018668,-0.00094023,0.00201341,0.05996016,0.000393
 88,0.00003323,0.00020143,0.00037176,-0.00056948,-0.00020780,-0.0002255
 8,0.00041360,0.00002568,0.00001766,-0.00001482,-0.00001975,-0.00013224
 ,0.00025731,-0.00024762,-0.00008414,-0.00003841,0.00023927,-0.00001858
 ,-0.00001684,0.00003222,0.00001001,-0.00002423,0.00000809,0.00015595,-
 0.00013917,-0.00008400,0.00001453,-0.00000628,0.00000948,-0.00009645,-
 0.00014228,0.00010319,-0.00095830,-0.00040722,-0.00079615,-0.00093022,
 0.00250975,-0.00010033,0.01819846,0.00134518,-0.00962028,0.00169313,-0
 .00625758,0.00155993,0.15735821,-0.01513299,-0.19107422,0.00091044,0.0
 0000424,-0.00054838,-0.17488350,0.01981074,0.19266312,-0.00000496,-0.0
 0011061,0.00000957,-0.00000506,0.00028139,0.00022428,-0.00000418,-0.00
 003683,-0.00002109,0.00000409,-0.00000596,0.00000035,0.00008030,-0.000
 06835,0.00008193,0.00003124,-0.00002034,-0.00003951,0.00000097,0.00002
 012,-0.00002381,-0.00000182,0.00000953,-0.00000581,-0.00007046,0.00004
 032,-0.00002318,-0.00000548,-0.00000783,-0.00000628,0.00005775,0.00005
 103,-0.00005103,0.00174411,0.00047178,-0.00156205,-0.00226238,-0.00284
 358,0.00675615,-0.04327347,-0.00153708,0.04321799,-0.22768987,-0.15457
 317,0.00759328,-0.01800550,-0.03584495,-0.01656487,0.00861049,0.004827
 45,0.00130628,-0.00002856,-0.00022514,-0.00089733,0.61450324,0.0001620
 5,0.00007316,0.00007698,0.00078341,-0.00059883,-0.00017063,-0.00008081
 ,0.00000699,-0.00002421,-0.00002678,0.00000086,0.00001000,-0.00005045,
 0.00021002,0.00007496,-0.00003174,0.00002820,0.00007937,-0.00001133,-0
 .00000839,-0.00001566,-0.00000943,0.00000558,-0.00000010,0.00005467,-0
 .00004224,-0.00009937,-0.00002310,0.00000271,-0.00000655,0.00002666,0.
 00000330,-0.00002485,-0.00135212,-0.00075654,-0.00144942,0.00106771,0.
 00687532,-0.00024169,-0.06243232,0.05008395,0.08236832,-0.08187727,-0.
 24510500,-0.05544564,-0.03365627,-0.09262380,-0.03478939,-0.01936639,-
 0.01302699,0.00167653,-0.00022885,-0.00142760,0.00005321,0.14641266,0.
 58569397,0.00002904,-0.00003247,0.00004572,0.00052689,0.00016040,0.000
 03104,-0.00004536,0.00010906,0.00003358,-0.00001834,-0.00000422,0.0000
 0772,-0.00003427,0.00004005,-0.00002378,0.00000470,-0.00003486,0.00005
 724,0.00002544,0.00002160,0.00005488,-0.00000971,0.00000002,0.00000240
 ,0.00000918,-0.00003571,-0.00005835,0.00000561,-0.00000193,0.00000263,
 -0.00003855,-0.00001403,-0.00003594,0.00176637,-0.00041263,-0.00066758
 ,0.00423089,0.00116870,0.00242813,-0.00168249,0.02996683,0.03557847,0.
 06128958,0.00518601,-0.12594327,-0.01532504,-0.03377277,-0.01856240,-0
 .01619849,-0.01761749,0.00611205,-0.00090098,-0.00018320,-0.00016984,-
 0.25987659,0.18819665,0.51240965,-0.00032375,-0.00005770,-0.00001449,-
 0.00084746,0.00020967,-0.00023924,0.00018082,-0.00017972,0.00000247,0.
 00002929,0.00000697,0.00000114,-0.00003092,-0.00008126,0.00007744,0.00
 002560,0.00004317,-0.00016567,-0.00000415,-0.00000846,-0.00002650,-0.0
 0000201,0.00001230,-0.00000389,-0.00007414,0.00011005,0.00007216,-0.00
 000334,0.00001475,-0.00000558,0.00005933,0.00009953,-0.00002075,-0.000
 54775,0.00132480,0.00223512,0.00558668,-0.00107285,-0.00063647,0.05263
 435,-0.05771311,-0.07699580,-0.08408058,-0.03801639,0.03697718,-0.2259
 1555,-0.08072755,0.06113178,-0.00135291,-0.00035655,0.00008452,-0.0111
 9228,-0.02035706,-0.00080381,0.03644697,0.09487767,0.04756943,0.550604
 56,0.00000435,0.00012463,0.00010779,0.00012374,-0.00034477,-0.00007653
 ,0.00000731,0.00005125,0.00001049,0.00001110,0.00000783,-0.00001178,-0
 .00002823,0.00012437,-0.00014886,-0.00007724,0.00005813,-0.00000076,-0
 .00002848,-0.00005273,-0.00001725,0.00001157,-0.00001159,0.00000312,-0
 .00000235,0.00000704,0.00006111,-0.00000290,0.00000497,-0.00000008,-0.
 00005047,-0.00007813,0.00000768,-0.00138726,0.00004340,-0.00032618,-0.
 00032330,-0.00173326,-0.00404740,0.00357281,-0.04820446,-0.04708387,-0
 .03911776,-0.02312066,0.02061344,-0.15454820,-0.24606981,0.00451618,-0
 .00029693,-0.00004300,0.00095879,0.00335210,0.00790117,-0.00176071,0.0
 3871826,0.04512384,-0.00510003,0.14485580,0.64750941,0.00023067,-0.000
 05970,-0.00004905,0.00012141,0.00035502,-0.00002436,-0.00016686,0.0002
 0596,-0.00000165,-0.00000710,0.00000547,-0.00000817,-0.00007955,0.0000
 3086,0.00000465,0.00000668,-0.00009647,0.00015144,0.00001736,0.0000248
 4,0.00001301,0.00002359,-0.00000586,0.00000786,0.00004381,-0.00010381,
 -0.00010035,0.00001297,-0.00000470,0.00001428,-0.00008831,-0.00010170,
 0.00000242,0.00136812,0.00173638,0.00014837,-0.00053610,-0.00844470,0.
 00241592,-0.03237479,0.00393392,0.03942196,0.03544641,0.01942275,-0.02
 229350,0.00748043,-0.05599186,-0.12685406,0.00010699,0.00094032,-0.000
 29739,0.01669338,0.01816346,0.00556843,0.00595855,-0.05188694,-0.03392
 247,-0.21261733,0.23704644,0.51556422,-0.00006930,0.00003696,0.0000712
 6,0.00020199,-0.00027484,-0.00011701,0.00003568,-0.00003909,-0.0000245
 9,-0.00000369,0.00000192,0.00000472,-0.00006879,0.00006033,0.00001520,
 -0.00003400,0.00004392,-0.00001562,-0.00000289,-0.00001277,-0.00000816
 ,-0.00000430,0.00000629,-0.00000108,0.00000829,-0.00000366,0.00000540,
 -0.00001204,0.00001127,-0.00000553,0.00002096,0.00000774,-0.00002600,-
 0.00042597,0.00023764,-0.00019404,-0.00034445,-0.00025666,0.00072108,0
 .00090614,-0.00581443,0.00186663,-0.01277286,0.00395631,0.01720489,-0.
 00002093,-0.00023668,-0.00091613,-0.00070494,0.00128670,-0.00250529,-0
 .00034127,0.00033134,-0.00034352,-0.23544709,0.00274289,0.15593503,0.0
 0387064,-0.00155764,0.00244666,0.24310530,0.00000886,0.00002445,0.0000
 4845,0.00014240,-0.00017795,-0.00006791,-0.00000469,0.00000958,-0.0000
 1520,-0.00000578,0.00000049,0.00000431,-0.00004461,0.00005238,-0.00001
 737,-0.00001919,0.00001079,0.00002156,0.00000318,0.00000297,0.00000531
 ,-0.00000248,0.00000317,-0.00000012,0.00001885,-0.00001721,-0.00001678
 ,-0.00000036,0.00000328,-0.00000092,0.00000870,-0.00000994,-0.00001353
 ,-0.00028601,0.00011761,-0.00015653,-0.00065967,-0.00032743,0.00080554
 ,-0.00567498,-0.00112290,-0.00246255,-0.02057154,0.00751428,0.01854696
 ,-0.00037979,-0.00169252,-0.00023478,0.00215909,-0.00032338,0.00161897
 ,0.00032080,-0.00017771,0.00039952,0.00259279,-0.06677192,-0.01732924,
 -0.00184713,-0.00220637,-0.00620614,-0.00075607,0.05960016,0.00000312,
 -0.00000670,-0.00001210,-0.00009199,0.00006800,0.00002843,0.00000102,-
 0.00000421,0.00000886,-0.00000091,-0.00000305,-0.00000341,0.00002830,-
 0.00002558,0.00001120,0.00000750,0.00000555,-0.00001167,-0.00000697,-0
 .00000304,-0.00000695,0.00000145,-0.00000413,-0.00000145,-0.00001279,0
 .00001418,0.00000832,-0.00000093,-0.00000335,0.00000173,-0.00000820,-0
 .00000221,0.00000416,0.00014277,0.00002585,0.00002572,-0.00022398,-0.0
 0023324,-0.00006505,0.00235706,-0.00231124,0.00487458,-0.00094649,-0.0
 0144702,0.00465367,-0.00091934,-0.00009286,-0.00024646,-0.00187342,0.0
 0223070,-0.00183091,-0.00036477,0.00040484,-0.00048909,0.15566989,-0.0
 1714910,-0.18435496,0.00211381,-0.00653699,0.00182650,-0.17252792,0.02
 142497,0.18643833,-0.00000763,0.00003385,0.00007111,0.00026259,-0.0002
 1045,-0.00010464,0.00001643,0.00000355,0.00000285,-0.00002177,-0.00000
 902,0.00000631,-0.00005356,0.00006430,-0.00002114,-0.00002462,0.000053
 99,0.00001634,-0.00000501,-0.00000932,0.00000405,-0.00001345,-0.000003
 38,-0.00000337,0.00002097,0.00000095,-0.00002031,-0.00000917,0.0000012
 5,-0.00000305,0.00000280,-0.00001490,-0.00001922,-0.00029574,0.0002419
 3,-0.00017506,-0.00002395,-0.00103607,-0.00025430,-0.00013200,-0.00551
 484,0.00300796,-0.00146057,-0.00040262,0.00015824,0.00795991,-0.019622
 46,-0.01692986,-0.00023919,0.00031174,-0.00044500,-0.00075966,0.002183
 50,-0.00186101,-0.00155408,-0.00224140,0.00647813,-0.06601784,0.010682
 89,0.02459481,-0.00005635,0.00110808,0.00082943,0.05862178,-0.00003567
 ,0.00004699,0.00008585,0.00033030,-0.00028233,-0.00013922,0.00001957,0
 .00000447,-0.00002775,-0.00002110,-0.00000069,0.00001096,-0.00010077,0
 .00008545,-0.00002145,-0.00004202,0.00004631,0.00003151,0.00000468,-0.
 00000327,0.00001136,-0.00000871,0.00000432,-0.00000077,0.00003393,-0.0
 0003574,-0.00001745,-0.00000532,0.00000787,-0.00000237,0.00000996,-0.0
 0001749,-0.00002580,-0.00050503,0.00025681,-0.00017128,0.00038670,-0.0
 0083871,-0.00018661,-0.00587233,-0.00028940,-0.00164825,-0.00048684,-0
 .00010989,0.00102147,0.00496682,-0.01396288,-0.01825600,0.00032698,-0.
 00027218,0.00030976,0.00136844,-0.00036238,0.00224307,-0.00187696,0.00
 358289,-0.00194236,0.01061815,-0.24130939,-0.15322703,-0.00010421,0.00
 002556,0.00010863,-0.00942903,0.24971672,-0.00002640,0.00002664,0.0000
 4015,0.00016228,-0.00015435,-0.00005603,0.00001603,-0.00002837,0.00001
 283,-0.00000459,-0.00000466,0.00000207,-0.00000567,0.00004265,-0.00001
 784,-0.00000833,0.00003985,-0.00000745,-0.00000366,-0.00001181,0.00000
 043,-0.00001387,-0.00000164,-0.00000135,0.00000215,0.00002068,-0.00000
 404,-0.00001302,-0.00000053,-0.00000945,0.00000913,0.00001055,-0.00001
 269,-0.00014089,0.00008183,-0.00008153,0.00010115,0.00020191,0.0000987
 4,0.00280555,-0.00160142,0.00505485,0.00026356,0.00104825,-0.00039752,
 0.00101206,0.00171285,0.00556060,-0.00042114,0.00029672,-0.00048576,-0
 .00243455,0.00160673,-0.00171997,0.00675637,-0.00173687,0.00146217,0.0
 2482142,-0.15315472,-0.17995874,-0.00004406,-0.00091841,-0.00063746,-0
 .02986822,0.16954116,0.18129007,0.00011006,0.00010218,0.00017874,0.000
 81835,-0.00065952,-0.00019983,-0.00005731,0.00002183,-0.00003372,-0.00
 002705,0.00000058,0.00000997,-0.00007856,0.00022939,0.00000048,-0.0000
 5019,0.00005450,0.00007297,-0.00000974,-0.00001711,-0.00000269,-0.0000
 1087,0.00000365,-0.00000265,0.00004060,-0.00002824,-0.00007481,-0.0000
 1940,0.00000574,-0.00000481,0.00001971,-0.00001236,-0.00004794,-0.0004
 9709,-0.00041635,-0.00097421,0.00015794,0.00279248,0.00122219,-0.03168
 636,0.02607889,0.04003854,0.05596873,0.00250585,-0.03755953,-0.0449319
 0,-0.06027481,-0.00001224,-0.00073359,-0.00616480,0.00302635,0.0006814
 5,-0.00607154,0.00233907,-0.13997035,-0.04759442,0.01527341,-0.2483202
 3,0.01773753,0.15355360,0.00302060,0.02282232,0.01829481,0.00448196,-0
 .00153893,-0.00096573,0.60358275,-0.00021033,0.00009900,0.00014503,0.0
 0029137,-0.00056425,-0.00032357,0.00013084,-0.00007756,-0.00000978,-0.
 00001323,-0.00000239,0.00000860,-0.00009606,0.00013454,-0.00000584,-0.
 00005852,0.00011367,-0.00006088,-0.00002605,-0.00004580,-0.00001775,-0
 .00001750,-0.00000136,-0.00000704,-0.00000177,0.00005455,0.00003550,-0
 .00002128,0.00001571,-0.00000768,0.00001133,0.00000510,-0.00004212,-0.
 00106238,0.00023176,0.00085735,0.00192683,0.00019066,-0.00136281,0.027
 50022,-0.03004358,-0.03867314,-0.05463671,-0.05130006,0.00184820,-0.00
 347873,0.05527996,0.03719693,-0.00605577,-0.00048758,-0.00181512,-0.00
 609905,-0.00176553,-0.00262774,0.02446803,-0.25780152,-0.15145060,-0.0
 5418311,-0.14399538,-0.00421397,-0.00170807,0.00566580,0.00182359,0.02
 270099,0.00419891,-0.01926666,0.20431240,0.64548971,-0.00007140,0.0000
 1794,-0.00000320,-0.00053487,0.00006536,-0.00008272,0.00004582,-0.0000
 0436,-0.00002078,0.00001285,0.00000424,-0.00000213,-0.00006097,-0.0000
 3848,-0.00003113,-0.00000383,0.00000805,-0.00001739,-0.00000688,-0.000
 01004,-0.00000553,0.00000582,-0.00000142,0.00000055,0.00002077,-0.0000
 0866,0.00004663,0.00001282,0.00000798,0.00000543,-0.00001766,-0.000011
 31,0.00001764,-0.00065471,0.00038357,0.00126001,0.00116798,-0.00112845
 ,-0.00276918,0.03955797,-0.03804549,-0.06921773,-0.07899249,-0.0460045
 4,0.04050167,0.04151888,0.08452763,0.03562501,0.00319237,-0.00151865,0
 .00501758,0.00209782,-0.00270446,0.00479094,0.06848206,-0.09273649,-0.
 20121166,0.10029900,-0.06361261,-0.20777908,0.00020087,-0.01787575,-0.
 00866171,0.01716152,0.00076196,-0.00861859,-0.20708228,0.18214683,0.47
 288165,-0.00005755,0.00001588,0.00001968,0.00010857,-0.00011086,-0.000
 03683,0.00003599,-0.00004700,-0.00000667,-0.00000004,-0.00000017,0.000
 00320,-0.00001846,0.00002076,0.00000299,-0.00001004,0.00003138,-0.0000
 2127,0.00000058,-0.00000869,-0.00000374,-0.00000847,0.00000319,-0.0000
 0067,-0.00000007,0.00000709,0.00001057,-0.00001038,0.00000404,-0.00000
 791,0.00002480,0.00001895,-0.00000767,-0.00025188,-0.00000436,-0.00008
 857,-0.00010893,0.00022337,-0.00033085,-0.00033168,0.00121205,0.000300
 93,0.00382395,-0.00091602,0.00326434,-0.00066323,-0.00101380,0.0069759
 2,0.00008238,0.00029697,-0.00001623,-0.00079501,-0.00094614,-0.0002171
 3,0.00723421,0.00341190,0.00114222,-0.01140440,-0.02182562,-0.00213230
 ,-0.00083751,0.00107184,-0.00245362,-0.00063493,0.00198667,-0.00197874
 ,-0.20207534,-0.15392779,0.01320236,0.20591923,-0.00002661,0.00000914,
 0.00002514,0.00007864,-0.00007329,-0.00003435,0.00000661,-0.00000906,-
 0.00001216,-0.00000167,0.00000227,0.00000416,-0.00003380,0.00002021,-0
 .00000528,-0.00000945,0.00000675,0.00000357,0.00000651,0.00000027,0.00
 000604,-0.00000255,0.00000499,0.00000071,0.00000770,-0.00001170,-0.000
 00317,-0.00000162,0.00000473,-0.00000239,0.00000745,0.00000621,-0.0000
 1382,-0.00000187,0.00013641,0.00002761,0.00019959,-0.00026681,0.000434
 94,0.00113816,-0.00019441,-0.00034330,-0.00065322,-0.00121682,-0.00665
 314,-0.00119095,0.00355805,-0.00278347,-0.00090929,-0.00089226,0.00023
 026,0.00023629,0.00004074,0.00001196,-0.02084759,-0.01323779,0.0031825
 4,0.00224345,0.00627398,-0.00137990,0.00195132,-0.00026701,0.00173247,
 0.00111878,-0.00052848,0.00225331,-0.15383927,-0.22550861,-0.00430884,
 0.17048304,0.23211830,0.00000365,0.00002464,0.00000750,0.00004981,-0.0
 0007743,-0.00002898,0.00000176,0.00000682,0.00000541,-0.00000143,0.,-0
 .00000160,-0.00000742,0.00001659,-0.00001090,-0.00001133,0.00001199,0.
 00000132,-0.00000318,-0.00000884,-0.00000094,0.00000057,-0.00000238,0.
 00000079,0.00000687,-0.00000130,0.00000692,-0.00000380,0.00000074,-0.0
 0000062,-0.00000743,-0.00001583,0.00000459,-0.00019931,-0.00005412,-0.
 00001450,-0.00033277,0.00039965,-0.00031393,0.00028217,-0.00024600,-0.
 00146761,0.00343728,-0.00648040,0.00111987,0.00678557,-0.00302237,0.00
 080294,-0.00089377,-0.00073155,-0.00001904,0.00065675,0.00100447,-0.00
 008337,-0.01669205,-0.01655247,0.00705230,0.01588120,0.01845978,0.0062
 5409,-0.00178637,0.00243789,-0.00156556,-0.00262903,0.00153416,-0.0015
 1489,0.01308245,-0.00432814,-0.06194515,-0.01763461,0.00762770,0.05170
 129,-0.00331909,0.00582029,0.00005373,-0.00593415,-0.00555256,0.026755
 15,0.00110545,-0.00066348,0.00191410,-0.00044931,0.00017413,0.00003174
 ,0.00032270,-0.00133492,0.00108898,0.00010634,0.00042879,-0.00112072,0
 .00039824,0.00080970,-0.00103610,0.00001264,0.00004499,-0.00009367,-0.
 00110749,0.00027212,0.00012502,-0.00003236,0.00004096,-0.00000117,-0.0
 0005066,-0.00022803,-0.00024416,-0.08245696,0.03644210,0.12534629,-0.0
 0515970,0.00508984,-0.03186737,0.00238739,-0.00025012,-0.00162029,0.00
 074978,0.00008693,-0.00008011,-0.00077660,-0.00150593,0.00001149,-0.00
 033286,0.00033110,0.00000822,-0.00017492,0.00013682,-0.00001131,-0.000
 39012,-0.00055697,-0.00015609,0.00067907,0.00016892,-0.00010309,-0.000
 02325,-0.00000459,-0.00001784,-0.00005692,-0.00002527,-0.00002083,-0.0
 0041417,0.00025434,0.00044619,-0.00002178,0.00004037,0.00001444,0.0949
 3871,0.00382093,-0.00325697,0.00106481,0.00674288,-0.00296678,-0.03271
 752,0.00063478,0.00129048,-0.00085366,0.00017170,-0.00033384,-0.000058
 86,-0.00080600,0.00080423,-0.00182319,0.00013289,-0.00020076,0.0003166
 0,0.00040006,-0.00047088,0.00144461,-0.00003678,-0.00000161,0.00010651
 ,-0.00034298,-0.00018273,-0.00017669,-0.00005854,0.00006244,0.00001493
 ,-0.00021819,-0.00010371,-0.00007014,0.03330797,-0.03340645,0.00691496
 ,-0.00533721,0.00167331,0.01102038,0.00128148,-0.00116039,-0.00326904,
 0.00022040,0.00099565,0.00041481,-0.00022050,-0.00087867,-0.00015514,0
 .00004831,0.00012172,-0.00008583,-0.00005174,-0.00005981,0.00005591,0.
 00010503,-0.00029016,-0.00010030,0.00018455,-0.00006046,-0.00014265,0.
 00008948,0.00006382,-0.00001605,-0.00001231,0.00003654,-0.00000370,-0.
 00005000,0.00011426,0.00008599,0.00001333,0.00002418,-0.00000361,-0.04
 001953,0.03818660,-0.00004969,0.00005317,0.00211666,0.00297569,0.00201
 540,-0.00507616,0.00002034,0.00006503,-0.00054510,-0.00001823,-0.00009
 187,0.00004128,-0.00269767,0.00170029,0.00212810,-0.00032642,0.0003415
 2,0.00027616,0.00016038,0.00035633,0.00037847,0.00002560,0.00004056,0.
 00001544,-0.00003390,-0.00051021,-0.00034191,-0.00006308,0.00007479,-0
 .00001694,-0.00014684,0.00015080,-0.00001731,0.12098836,-0.02652748,-0
 .47003828,-0.00196040,0.00563475,-0.01491276,0.00086691,-0.00095816,0.
 00094349,0.00002918,0.00003769,0.00019657,-0.00024879,-0.00034569,-0.0
 0017292,0.00004618,-0.00013430,-0.00000335,-0.00004424,0.00001582,-0.0
 0004098,-0.00029311,-0.00020664,-0.00032773,0.00026288,0.00009295,-0.0
 0010431,0.00004359,0.00000174,0.00000530,0.00000344,0.00000643,0.00000
 140,-0.00013216,0.00015081,0.00021887,0.00001461,-0.00000059,0.0000100
 8,-0.11942263,0.01803686,0.48526594\\0.00000033,0.00000321,0.00000350,
 -0.00000768,-0.00001220,-0.00000746,-0.00000370,0.00000573,0.00000116,
 -0.00000096,0.00000170,-0.00000059,0.00000170,-0.00000015,-0.00000303,
 -0.00000068,-0.00000520,0.00000659,0.00000009,-0.00000149,0.00000054,-
 0.00000049,0.00000120,-0.00000071,0.00000557,0.00000227,-0.00000150,-0
 .00000237,-0.00000004,0.00000165,-0.00000111,-0.00000080,-0.00000368,-
 0.00000001,0.00001234,-0.00000175,0.00000500,-0.00000704,0.00000305,0.
 00000341,0.00000873,0.00000497,0.00000089,0.00000346,-0.00000343,0.000
 00020,-0.00001377,0.00000054,0.00000043,-0.00000054,0.00000028,-0.0000
 0038,0.00000191,-0.00000132,-0.00000056,-0.00000801,-0.00000026,0.0000
 0674,0.00000570,-0.00000586,-0.00000013,0.00000079,-0.00000017,0.00000
 026,-0.00000009,0.00000082,-0.00000516,0.00000561,0.00000564,0.0000006
 5,-0.00000053,0.00000050,-0.00000205,-0.00000281,0.00000051\\\@


 REALITY IS FOR PEOPLE WHO CAN'T FACE SCIENCE FICTION.
 Job cpu time:  0 days 13 hours 44 minutes 28.2 seconds.
 File lengths (MBytes):  RWF=    559 Int=      0 D2E=      0 Chk=     20 Scr=      1
 Normal termination of Gaussian 09 at Fri May 29 15:20:02 2015.
