 Entering Gaussian System, Link 0=g09
 Input=Gas-HF-6-311+G2dfp-Freq-Opt-C6H5NH2.inp
 Output=Gas-HF-6-311+G2dfp-Freq-Opt-C6H5NH2.log
 Initial command:
 /usr/local/g09/l1.exe /local/gaussian-tmp/3702329/Gau-11145.inp -scrdir=/local/gaussian-tmp/3702329/
 Entering Link 1 = /usr/local/g09/l1.exe PID=     11146.
  
 Copyright (c) 1988,1990,1992,1993,1995,1998,2003,2009, Gaussian, Inc.
                  All Rights Reserved.
  
 This is part of the Gaussian(R) 09 program.  It is based on
 the Gaussian(R) 03 system (copyright 2003, Gaussian, Inc.),
 the Gaussian(R) 98 system (copyright 1998, Gaussian, Inc.),
 the Gaussian(R) 94 system (copyright 1995, Gaussian, Inc.),
 the Gaussian 92(TM) system (copyright 1992, Gaussian, Inc.),
 the Gaussian 90(TM) system (copyright 1990, Gaussian, Inc.),
 the Gaussian 88(TM) system (copyright 1988, Gaussian, Inc.),
 the Gaussian 86(TM) system (copyright 1986, Carnegie Mellon
 University), and the Gaussian 82(TM) system (copyright 1983,
 Carnegie Mellon University). Gaussian is a federally registered
 trademark of Gaussian, Inc.
  
 This software contains proprietary and confidential information,
 including trade secrets, belonging to Gaussian, Inc.
  
 This software is provided under written license and may be
 used, copied, transmitted, or stored only in accord with that
 written license.
  
 The following legend is applicable only to US Government
 contracts under FAR:
  
                    RESTRICTED RIGHTS LEGEND
  
 Use, reproduction and disclosure by the US Government is
 subject to restrictions as set forth in subparagraphs (a)
 and (c) of the Commercial Computer Software - Restricted
 Rights clause in FAR 52.227-19.
  
 Gaussian, Inc.
 340 Quinnipiac St., Bldg. 40, Wallingford CT 06492
  
  
 ---------------------------------------------------------------
 Warning -- This program may not be used in any manner that
 competes with the business of Gaussian, Inc. or will provide
 assistance to any competitor of Gaussian, Inc.  The licensee
 of this program is prohibited from giving any competitor of
 Gaussian, Inc. access to this program.  By using this program,
 the user acknowledges that Gaussian, Inc. is engaged in the
 business of creating and licensing software in the field of
 computational chemistry and represents and warrants to the
 licensee that it is not a competitor of Gaussian, Inc. and that
 it will not use this program in any manner prohibited above.
 ---------------------------------------------------------------
  

 Cite this work as:
 Gaussian 09, Revision A.02,
 M. J. Frisch, G. W. Trucks, H. B. Schlegel, G. E. Scuseria, 
 M. A. Robb, J. R. Cheeseman, G. Scalmani, V. Barone, B. Mennucci, 
 G. A. Petersson, H. Nakatsuji, M. Caricato, X. Li, H. P. Hratchian, 
 A. F. Izmaylov, J. Bloino, G. Zheng, J. L. Sonnenberg, M. Hada, 
 M. Ehara, K. Toyota, R. Fukuda, J. Hasegawa, M. Ishida, T. Nakajima, 
 Y. Honda, O. Kitao, H. Nakai, T. Vreven, J. A. Montgomery, Jr., 
 J. E. Peralta, F. Ogliaro, M. Bearpark, J. J. Heyd, E. Brothers, 
 K. N. Kudin, V. N. Staroverov, R. Kobayashi, J. Normand, 
 K. Raghavachari, A. Rendell, J. C. Burant, S. S. Iyengar, J. Tomasi, 
 M. Cossi, N. Rega, J. M. Millam, M. Klene, J. E. Knox, J. B. Cross, 
 V. Bakken, C. Adamo, J. Jaramillo, R. Gomperts, R. E. Stratmann, 
 O. Yazyev, A. J. Austin, R. Cammi, C. Pomelli, J. W. Ochterski, 
 R. L. Martin, K. Morokuma, V. G. Zakrzewski, G. A. Voth, 
 P. Salvador, J. J. Dannenberg, S. Dapprich, A. D. Daniels, 
 O. Farkas, J. B. Foresman, J. V. Ortiz, J. Cioslowski, 
 and D. J. Fox, Gaussian, Inc., Wallingford CT, 2009.
 
 ******************************************
 Gaussian 09:  EM64L-G09RevA.02 11-Jun-2009
                29-May-2015 
 ******************************************
 %chk=fdsasadshkandy
 %mem=10GB
 %nproc=8
 Will use up to    8 processors via shared memory.
 ----------------------------
 # HF/6-311+G(2df,p) Opt Freq
 ----------------------------
 1/18=20,19=15,38=1/1,3;
 2/9=110,12=2,17=6,18=5,40=1/2;
 3/5=4,6=6,7=114,11=9,16=1,25=1,30=1,71=1/1,2,3;
 4//1;
 5/5=2,38=5/2;
 6/7=2,8=2,9=2,10=2,28=1/1;
 7//1,2,3,16;
 1/18=20,19=15/3(2);
 2/9=110/2;
 99//99;
 2/9=110/2;
 3/5=4,6=6,7=114,11=9,16=1,25=1,30=1,71=1/1,2,3;
 4/5=5,16=3/1;
 5/5=2,38=5/2;
 7//1,2,3,16;
 1/18=20,19=15/3(-5);
 2/9=110/2;
 6/7=2,8=2,9=2,10=2,19=2,28=1/1;
 99/9=1/99;
 -----
 title
 -----
 Symbolic Z-matrix:
 Charge =  0 Multiplicity = 1
 6                     0.20155   1.1966   -0.0124 
 6                    -0.49516  -0.00001  -0.01346 
 6                     1.58328   1.19561   0.00567 
 1                     2.11661   2.12823   0.00879 
 6                     0.20155  -1.19659  -0.0124 
 6                     2.27555  0.         0.01594 
 1                    -0.33748  -2.12463  -0.0266 
 1                     3.3499    0.00001   0.02794 
 6                     1.58329  -1.19561   0.00569 
 1                     2.11662  -2.12823   0.00882 
 1                    -0.33749   2.12463  -0.02658 
 7                    -2.28109   0.00001  -0.07276 
 1                    -2.51106  -0.00012   1.23757 
 1                    -2.91139   0.00009  -0.84911 
 

 GradGradGradGradGradGradGradGradGradGradGradGradGradGradGradGradGradGrad
 Berny optimization.
 Initialization pass.
                           ----------------------------
                           !    Initial Parameters    !
                           ! (Angstroms and Degrees)  !
 --------------------------                            --------------------------
 ! Name  Definition              Value          Derivative Info.                !
 --------------------------------------------------------------------------------
 ! R1    R(1,2)                  1.3847         estimate D2E/DX2                !
 ! R2    R(1,3)                  1.3818         estimate D2E/DX2                !
 ! R3    R(1,11)                 1.0733         estimate D2E/DX2                !
 ! R4    R(2,5)                  1.3846         estimate D2E/DX2                !
 ! R5    R(2,12)                 1.7869         estimate D2E/DX2                !
 ! R6    R(3,4)                  1.0743         estimate D2E/DX2                !
 ! R7    R(3,6)                  1.3816         estimate D2E/DX2                !
 ! R8    R(5,7)                  1.0733         estimate D2E/DX2                !
 ! R9    R(5,9)                  1.3819         estimate D2E/DX2                !
 ! R10   R(6,8)                  1.0744         estimate D2E/DX2                !
 ! R11   R(6,9)                  1.3816         estimate D2E/DX2                !
 ! R12   R(9,10)                 1.0743         estimate D2E/DX2                !
 ! R13   R(12,13)                1.3304         estimate D2E/DX2                !
 ! R14   R(12,14)                1.0            estimate D2E/DX2                !
 ! A1    A(2,1,3)              120.167          estimate D2E/DX2                !
 ! A2    A(2,1,11)             119.6366         estimate D2E/DX2                !
 ! A3    A(3,1,11)             120.1964         estimate D2E/DX2                !
 ! A4    A(1,2,5)              119.5801         estimate D2E/DX2                !
 ! A5    A(1,2,12)             120.1927         estimate D2E/DX2                !
 ! A6    A(5,2,12)             120.1938         estimate D2E/DX2                !
 ! A7    A(1,3,4)              119.7229         estimate D2E/DX2                !
 ! A8    A(1,3,6)              120.1145         estimate D2E/DX2                !
 ! A9    A(4,3,6)              120.1624         estimate D2E/DX2                !
 ! A10   A(2,5,7)              119.6375         estimate D2E/DX2                !
 ! A11   A(2,5,9)              120.167          estimate D2E/DX2                !
 ! A12   A(7,5,9)              120.1955         estimate D2E/DX2                !
 ! A13   A(3,6,8)              120.0732         estimate D2E/DX2                !
 ! A14   A(3,6,9)              119.8525         estimate D2E/DX2                !
 ! A15   A(8,6,9)              120.0739         estimate D2E/DX2                !
 ! A16   A(5,9,6)              120.1144         estimate D2E/DX2                !
 ! A17   A(5,9,10)             119.7221         estimate D2E/DX2                !
 ! A18   A(6,9,10)             120.1632         estimate D2E/DX2                !
 ! A19   A(2,12,13)             98.0528         estimate D2E/DX2                !
 ! A20   A(2,12,14)            130.9736         estimate D2E/DX2                !
 ! A21   A(13,12,14)           130.9736         estimate D2E/DX2                !
 ! D1    D(3,1,2,5)             -0.7652         estimate D2E/DX2                !
 ! D2    D(3,1,2,12)          -178.6662         estimate D2E/DX2                !
 ! D3    D(11,1,2,5)           179.179          estimate D2E/DX2                !
 ! D4    D(11,1,2,12)            1.278          estimate D2E/DX2                !
 ! D5    D(2,1,3,4)           -179.8515         estimate D2E/DX2                !
 ! D6    D(2,1,3,6)              0.3264         estimate D2E/DX2                !
 ! D7    D(11,1,3,4)             0.2046         estimate D2E/DX2                !
 ! D8    D(11,1,3,6)          -179.6175         estimate D2E/DX2                !
 ! D9    D(1,2,5,7)           -179.179          estimate D2E/DX2                !
 ! D10   D(1,2,5,9)              0.7666         estimate D2E/DX2                !
 ! D11   D(12,2,5,7)            -1.2781         estimate D2E/DX2                !
 ! D12   D(12,2,5,9)           178.6675         estimate D2E/DX2                !
 ! D13   D(1,2,12,13)          -91.0615         estimate D2E/DX2                !
 ! D14   D(1,2,12,14)           88.9385         estimate D2E/DX2                !
 ! D15   D(5,2,12,13)           91.0504         estimate D2E/DX2                !
 ! D16   D(5,2,12,14)          -88.9496         estimate D2E/DX2                !
 ! D17   D(1,3,6,8)            179.8739         estimate D2E/DX2                !
 ! D18   D(1,3,6,9)              0.1156         estimate D2E/DX2                !
 ! D19   D(4,3,6,8)              0.0526         estimate D2E/DX2                !
 ! D20   D(4,3,6,9)           -179.7057         estimate D2E/DX2                !
 ! D21   D(2,5,9,6)             -0.3291         estimate D2E/DX2                !
 ! D22   D(2,5,9,10)           179.8507         estimate D2E/DX2                !
 ! D23   D(7,5,9,6)            179.6162         estimate D2E/DX2                !
 ! D24   D(7,5,9,10)            -0.204          estimate D2E/DX2                !
 ! D25   D(3,6,9,5)             -0.1143         estimate D2E/DX2                !
 ! D26   D(3,6,9,10)           179.7051         estimate D2E/DX2                !
 ! D27   D(8,6,9,5)           -179.8726         estimate D2E/DX2                !
 ! D28   D(8,6,9,10)            -0.0532         estimate D2E/DX2                !
 --------------------------------------------------------------------------------
 Trust Radius=3.00D-01 FncErr=1.00D-07 GrdErr=1.00D-07
 Number of steps in this run=  73 maximum allowed number of steps= 100.
 GradGradGradGradGradGradGradGradGradGradGradGradGradGradGradGradGradGrad

                          Input orientation:                          
 ---------------------------------------------------------------------
 Center     Atomic      Atomic             Coordinates (Angstroms)
 Number     Number       Type             X           Y           Z
 ---------------------------------------------------------------------
      1          6           0        0.201554    1.196595   -0.012396
      2          6           0       -0.495161   -0.000008   -0.013463
      3          6           0        1.583279    1.195614    0.005669
      4          1           0        2.116614    2.128229    0.008793
      5          6           0        0.201548   -1.196592   -0.012403
      6          6           0        2.275549   -0.000003    0.015939
      7          1           0       -0.337478   -2.124634   -0.026595
      8          1           0        3.349901    0.000005    0.027938
      9          6           0        1.583292   -1.195607    0.005690
     10          1           0        2.116617   -2.128228    0.008821
     11          1           0       -0.337490    2.124627   -0.026584
     12          7           0       -2.281092    0.000008   -0.072759
     13          1           0       -2.511062   -0.000122    1.237565
     14          1           0       -2.911388    0.000089   -0.849114
 ---------------------------------------------------------------------
                    Distance matrix (angstroms):
                    1          2          3          4          5
     1  C    0.000000
     2  C    1.384656   0.000000
     3  C    1.381843   2.397872   0.000000
     4  H    2.129752   3.369163   1.074349   0.000000
     5  C    2.393187   1.384636   2.762636   3.836973   0.000000
     6  C    2.394599   2.770866   1.381609   2.134170   2.394600
     7  H    3.364717   2.130510   3.835935   4.910261   1.073318
     8  H    3.368315   3.845285   2.133291   2.459817   3.368323
     9  C    2.762636   2.397872   2.391221   3.366352   1.381863
    10  H    3.836973   3.369154   3.366361   4.256457   2.129762
    11  H    1.073319   2.130518   2.133884   2.454362   3.364708
    12  N    2.756628   1.786915   4.045861   4.886286   2.756628
    13  H    3.217580   2.372536   4.439705   5.239766   3.217486
    14  H    3.438333   2.556652   4.728844   5.526825   3.438387
                    6          7          8          9         10
     6  C    0.000000
     7  H    3.368052   0.000000
     8  H    1.074419   4.256034   0.000000
     9  C    1.381591   2.133891   2.133282   0.000000
    10  H    2.134163   2.454353   2.459823   1.074350   0.000000
    11  H    3.368061   4.249261   4.256036   3.835935   4.910262
    12  N    4.557504   2.879908   5.631893   4.045876   4.886296
    13  H    4.940042   3.291826   5.984487   4.439644   5.239662
    14  H    5.258577   3.437441   6.322418   4.728904   5.526900
                   11         12         13         14
    11  H    0.000000
    12  N    2.879883   0.000000
    13  H    3.291967   1.330352   0.000000
    14  H    3.437320   1.000000   2.124733   0.000000
 Stoichiometry    C6H7N
 Framework group  C1[X(C6H7N)]
 Deg. of freedom    36
 Full point group                 C1      NOp   1
 Largest Abelian subgroup         C1      NOp   1
 Largest concise Abelian subgroup C1      NOp   1
                         Standard orientation:                         
 ---------------------------------------------------------------------
 Center     Atomic      Atomic             Coordinates (Angstroms)
 Number     Number       Type             X           Y           Z
 ---------------------------------------------------------------------
      1          6           0       -0.150883    1.196595   -0.007212
      2          6           0       -0.847581   -0.000009   -0.002332
      3          6           0        1.230945    1.195615   -0.000960
      4          1           0        1.764286    2.128231   -0.002388
      5          6           0       -0.150886   -1.196592   -0.007237
      6          6           0        1.923279    0.000000    0.003384
      7          1           0       -0.690013   -2.124635   -0.016827
      8          1           0        2.997695    0.000008    0.006198
      9          6           0        1.230962   -1.195606   -0.000956
     10          1           0        1.764295   -2.128226   -0.002391
     11          1           0       -0.690030    2.124626   -0.016785
     12          7           0       -2.633953    0.000005   -0.046359
     13          1           0       -2.852714   -0.000135    1.265883
     14          1           0       -3.270863    0.000091   -0.817297
 ---------------------------------------------------------------------
 Rotational constants (GHZ):      5.6647376      2.2495959      1.6342698
 Standard basis: 6-311+G(2df,p) (5D, 7F)
 There are   280 symmetry adapted basis functions of A   symmetry.
 Integral buffers will be    131072 words long.
 Raffenetti 1 integral format.
 Two-electron integral symmetry is turned on.
   280 basis functions,   420 primitive gaussians,   315 cartesian basis functions
    25 alpha electrons       25 beta electrons
       nuclear repulsion energy       263.3981492337 Hartrees.
 NAtoms=   14 NActive=   14 NUniq=   14 SFac= 7.50D-01 NAtFMM=   80 NAOKFM=F Big=F
 One-electron integrals computed using PRISM.
 NBasis=   280 RedAO= T  NBF=   280
 NBsUse=   280 1.00D-06 NBFU=   280
 Harris functional with IExCor=  205 diagonalized for initial guess.
 ExpMin= 4.38D-02 ExpMax= 6.29D+03 ExpMxC= 9.49D+02 IAcc=2 IRadAn=         0 AccDes= 0.00D+00
 HarFok:  IExCor=  205 AccDes= 0.00D+00 IRadAn=         0 IDoV= 1
 ScaDFX=  1.000000  1.000000  1.000000  1.000000
 FoFCou: FMM=F IPFlag=           0 FMFlag=      100000 FMFlg1=           0
         NFxFlg=           0 DoJE=T BraDBF=F KetDBF=T FulRan=T
         Omega=  0.000000  0.000000  1.000000  0.000000  0.000000 ICntrl=     500 IOpCl=  0
         NMat0=    1 NMatS0=    1 NMatT0=    0 NMatD0=    1 NMtDS0=    0 NMtDT0=    0
         I1Cent=           4 NGrid=           0.
 Petite list used in FoFCou.
 Initial guess orbital symmetries:
       Occupied  (A) (A) (A) (A) (A) (A) (A) (A) (A) (A) (A) (A)
                 (A) (A) (A) (A) (A) (A) (A) (A) (A) (A) (A) (A)
                 (A)
       Virtual   (A) (A) (A) (A) (A) (A) (A) (A) (A) (A) (A) (A)
                 (A) (A) (A) (A) (A) (A) (A) (A) (A) (A) (A) (A)
                 (A) (A) (A) (A) (A) (A) (A) (A) (A) (A) (A) (A)
                 (A) (A) (A) (A) (A) (A) (A) (A) (A) (A) (A) (A)
                 (A) (A) (A) (A) (A) (A) (A) (A) (A) (A) (A) (A)
                 (A) (A) (A) (A) (A) (A) (A) (A) (A) (A) (A) (A)
                 (A) (A) (A) (A) (A) (A) (A) (A) (A) (A) (A) (A)
                 (A) (A) (A) (A) (A) (A) (A) (A) (A) (A) (A) (A)
                 (A) (A) (A) (A) (A) (A) (A) (A) (A) (A) (A) (A)
                 (A) (A) (A) (A) (A) (A) (A) (A) (A) (A) (A) (A)
                 (A) (A) (A) (A) (A) (A) (A) (A) (A) (A) (A) (A)
                 (A) (A) (A) (A) (A) (A) (A) (A) (A) (A) (A) (A)
                 (A) (A) (A) (A) (A) (A) (A) (A) (A) (A) (A) (A)
                 (A) (A) (A) (A) (A) (A) (A) (A) (A) (A) (A) (A)
                 (A) (A) (A) (A) (A) (A) (A) (A) (A) (A) (A) (A)
                 (A) (A) (A) (A) (A) (A) (A) (A) (A) (A) (A) (A)
                 (A) (A) (A) (A) (A) (A) (A) (A) (A) (A) (A) (A)
                 (A) (A) (A) (A) (A) (A) (A) (A) (A) (A) (A) (A)
                 (A) (A) (A) (A) (A) (A) (A) (A) (A) (A) (A) (A)
                 (A) (A) (A) (A) (A) (A) (A) (A) (A) (A) (A) (A)
                 (A) (A) (A) (A) (A) (A) (A) (A) (A) (A) (A) (A)
                 (A) (A) (A)
 The electronic state of the initial guess is 1-A.
 Requested convergence on RMS density matrix=1.00D-08 within 128 cycles.
 Requested convergence on MAX density matrix=1.00D-06.
 Requested convergence on             energy=1.00D-06.
 No special actions if energy rises.
 Keep R1 ints in memory in canonical form, NReq=1254649062.
 SCF Done:  E(RHF) =  -285.680015552     A.U. after   15 cycles
             Convg  =    0.3145D-08             -V/T =  2.0029

 **********************************************************************

            Population analysis using the SCF density.

 **********************************************************************

 Orbital symmetries:
       Occupied  (A) (A) (A) (A) (A) (A) (A) (A) (A) (A) (A) (A)
                 (A) (A) (A) (A) (A) (A) (A) (A) (A) (A) (A) (A)
                 (A)
       Virtual   (A) (A) (A) (A) (A) (A) (A) (A) (A) (A) (A) (A)
                 (A) (A) (A) (A) (A) (A) (A) (A) (A) (A) (A) (A)
                 (A) (A) (A) (A) (A) (A) (A) (A) (A) (A) (A) (A)
                 (A) (A) (A) (A) (A) (A) (A) (A) (A) (A) (A) (A)
                 (A) (A) (A) (A) (A) (A) (A) (A) (A) (A) (A) (A)
                 (A) (A) (A) (A) (A) (A) (A) (A) (A) (A) (A) (A)
                 (A) (A) (A) (A) (A) (A) (A) (A) (A) (A) (A) (A)
                 (A) (A) (A) (A) (A) (A) (A) (A) (A) (A) (A) (A)
                 (A) (A) (A) (A) (A) (A) (A) (A) (A) (A) (A) (A)
                 (A) (A) (A) (A) (A) (A) (A) (A) (A) (A) (A) (A)
                 (A) (A) (A) (A) (A) (A) (A) (A) (A) (A) (A) (A)
                 (A) (A) (A) (A) (A) (A) (A) (A) (A) (A) (A) (A)
                 (A) (A) (A) (A) (A) (A) (A) (A) (A) (A) (A) (A)
                 (A) (A) (A) (A) (A) (A) (A) (A) (A) (A) (A) (A)
                 (A) (A) (A) (A) (A) (A) (A) (A) (A) (A) (A) (A)
                 (A) (A) (A) (A) (A) (A) (A) (A) (A) (A) (A) (A)
                 (A) (A) (A) (A) (A) (A) (A) (A) (A) (A) (A) (A)
                 (A) (A) (A) (A) (A) (A) (A) (A) (A) (A) (A) (A)
                 (A) (A) (A) (A) (A) (A) (A) (A) (A) (A) (A) (A)
                 (A) (A) (A) (A) (A) (A) (A) (A) (A) (A) (A) (A)
                 (A) (A) (A) (A) (A) (A) (A) (A) (A) (A) (A) (A)
                 (A) (A) (A)
 The electronic state is 1-A.
 Alpha  occ. eigenvalues --  -15.56847 -11.29640 -11.23782 -11.23781 -11.23647
 Alpha  occ. eigenvalues --  -11.23608 -11.23434  -1.16786  -1.06503  -1.02697
 Alpha  occ. eigenvalues --   -0.99831  -0.83512  -0.81659  -0.70775  -0.63787
 Alpha  occ. eigenvalues --   -0.63474  -0.60607  -0.59682  -0.54683  -0.51413
 Alpha  occ. eigenvalues --   -0.50436  -0.45654  -0.37583  -0.34563  -0.34440
 Alpha virt. eigenvalues --    0.06708   0.07163   0.07940   0.09164   0.10327
 Alpha virt. eigenvalues --    0.10781   0.10823   0.12074   0.12637   0.14935
 Alpha virt. eigenvalues --    0.15122   0.15880   0.17076   0.18355   0.18695
 Alpha virt. eigenvalues --    0.20539   0.21054   0.21214   0.21466   0.22290
 Alpha virt. eigenvalues --    0.22354   0.22834   0.24505   0.24887   0.25125
 Alpha virt. eigenvalues --    0.27229   0.28868   0.29080   0.29400   0.30520
 Alpha virt. eigenvalues --    0.31252   0.31570   0.33259   0.34424   0.36229
 Alpha virt. eigenvalues --    0.37447   0.37561   0.39238   0.40353   0.47434
 Alpha virt. eigenvalues --    0.47932   0.49912   0.51132   0.59383   0.60341
 Alpha virt. eigenvalues --    0.61264   0.64834   0.67572   0.68774   0.69655
 Alpha virt. eigenvalues --    0.69928   0.70296   0.71276   0.71881   0.72741
 Alpha virt. eigenvalues --    0.76263   0.78373   0.78913   0.80890   0.82546
 Alpha virt. eigenvalues --    0.82714   0.82885   0.82970   0.84881   0.86490
 Alpha virt. eigenvalues --    0.87235   0.91090   0.94762   0.96381   0.96534
 Alpha virt. eigenvalues --    0.96659   0.97101   0.98359   0.99727   1.00192
 Alpha virt. eigenvalues --    1.01177   1.03766   1.05397   1.06325   1.06468
 Alpha virt. eigenvalues --    1.08103   1.11569   1.15365   1.15749   1.18981
 Alpha virt. eigenvalues --    1.20212   1.31802   1.33663   1.34158   1.35291
 Alpha virt. eigenvalues --    1.36302   1.41305   1.47162   1.47523   1.49170
 Alpha virt. eigenvalues --    1.50519   1.51487   1.54161   1.55763   1.56851
 Alpha virt. eigenvalues --    1.59410   1.60959   1.65145   1.65884   1.67822
 Alpha virt. eigenvalues --    1.69889   1.78196   1.80157   1.80324   1.81332
 Alpha virt. eigenvalues --    1.83182   1.90028   1.90351   1.91479   2.01908
 Alpha virt. eigenvalues --    2.02158   2.05692   2.06029   2.15227   2.18266
 Alpha virt. eigenvalues --    2.21747   2.23146   2.27678   2.43788   2.44062
 Alpha virt. eigenvalues --    2.52646   2.59894   2.60605   2.63608   2.69846
 Alpha virt. eigenvalues --    2.71842   2.77991   2.78178   2.82008   2.82236
 Alpha virt. eigenvalues --    2.83744   2.88105   2.89222   2.91090   2.93057
 Alpha virt. eigenvalues --    2.96203   2.98705   3.00229   3.03113   3.07917
 Alpha virt. eigenvalues --    3.08903   3.09231   3.09588   3.09610   3.11430
 Alpha virt. eigenvalues --    3.11739   3.14333   3.14640   3.16961   3.19102
 Alpha virt. eigenvalues --    3.19598   3.22198   3.23336   3.23911   3.25003
 Alpha virt. eigenvalues --    3.27439   3.28633   3.30752   3.31713   3.34482
 Alpha virt. eigenvalues --    3.40675   3.44981   3.45937   3.46139   3.47939
 Alpha virt. eigenvalues --    3.54772   3.60682   3.63015   3.64152   3.65897
 Alpha virt. eigenvalues --    3.66103   3.67523   3.70545   3.71167   3.72981
 Alpha virt. eigenvalues --    3.74225   3.74919   3.77971   3.83791   3.85041
 Alpha virt. eigenvalues --    3.85434   3.85849   3.88092   3.90178   3.90642
 Alpha virt. eigenvalues --    3.96187   3.99589   4.01252   4.06718   4.09058
 Alpha virt. eigenvalues --    4.09893   4.10527   4.11000   4.15343   4.17106
 Alpha virt. eigenvalues --    4.17452   4.21164   4.25982   4.28983   4.29833
 Alpha virt. eigenvalues --    4.35241   4.35775   4.38575   4.41809   4.48583
 Alpha virt. eigenvalues --    4.50677   4.55518   4.57021   4.57150   4.61779
 Alpha virt. eigenvalues --    4.71795   4.77327   4.79453   4.79885   4.84242
 Alpha virt. eigenvalues --    4.84272   4.87030   4.87925   4.88300   4.89051
 Alpha virt. eigenvalues --    4.92865   4.95416   5.02243   5.14876   5.26060
 Alpha virt. eigenvalues --    5.31569   5.32370   5.34287   5.39106   5.51150
 Alpha virt. eigenvalues --    5.53509   5.59686   5.60884   5.63301   5.68107
 Alpha virt. eigenvalues --    5.70620   5.84120   5.94155   5.94440   6.00531
 Alpha virt. eigenvalues --    6.03385   6.15931   6.94446  24.92696  25.50741
 Alpha virt. eigenvalues --   25.55747  25.81909  25.85949  26.24054  36.99956
          Condensed to atoms (all electrons):
              1          2          3          4          5          6
     1  C    8.000308  -0.069499   0.852253  -0.052168  -1.994971  -0.044878
     2  C   -0.069499   6.690649  -0.403103  -0.002588  -0.069831  -0.589672
     3  C    0.852253  -0.403103   5.317172   0.435845  -0.657742   0.700853
     4  H   -0.052168  -0.002588   0.435845   0.505767  -0.007968  -0.017629
     5  C   -1.994971  -0.069831  -0.657742  -0.007968   8.000675  -0.044829
     6  C   -0.044878  -0.589672   0.700853  -0.017629  -0.044829   5.122587
     7  H   -0.002175  -0.031058   0.001565   0.000061   0.435885   0.005655
     8  H   -0.006546   0.010124  -0.019931  -0.006572  -0.006545   0.408662
     9  C   -0.657690  -0.403128  -0.108248   0.009351   0.852241   0.700857
    10  H   -0.007968  -0.002589   0.009352  -0.000156  -0.052168  -0.017626
    11  H    0.435886  -0.031057  -0.041763  -0.006706  -0.002177   0.005655
    12  N   -0.250751   0.826133  -0.042432  -0.000487  -0.250745  -0.019442
    13  H   -0.009986   0.000240  -0.002264   0.000019  -0.009996  -0.001867
    14  H   -0.004794   0.000769  -0.000602   0.000003  -0.004795  -0.000259
              7          8          9         10         11         12
     1  C   -0.002175  -0.006546  -0.657690  -0.007968   0.435886  -0.250751
     2  C   -0.031058   0.010124  -0.403128  -0.002589  -0.031057   0.826133
     3  C    0.001565  -0.019931  -0.108248   0.009352  -0.041763  -0.042432
     4  H    0.000061  -0.006572   0.009351  -0.000156  -0.006706  -0.000487
     5  C    0.435885  -0.006545   0.852241  -0.052168  -0.002177  -0.250745
     6  C    0.005655   0.408662   0.700857  -0.017626   0.005655  -0.019442
     7  H    0.486273  -0.000159  -0.041763  -0.006705   0.000006  -0.010136
     8  H   -0.000159   0.507478  -0.019931  -0.006573  -0.000159   0.000192
     9  C   -0.041763  -0.019931   5.317149   0.435845   0.001565  -0.042428
    10  H   -0.006705  -0.006573   0.435845   0.505766   0.000061  -0.000487
    11  H    0.000006  -0.000159   0.001565   0.000061   0.486273  -0.010135
    12  N   -0.010136   0.000192  -0.042428  -0.000487  -0.010135   6.874240
    13  H    0.001261  -0.000004  -0.002263   0.000019   0.001261   0.311228
    14  H    0.000537  -0.000001  -0.000603   0.000003   0.000537   0.357603
             13         14
     1  C   -0.009986  -0.004794
     2  C    0.000240   0.000769
     3  C   -0.002264  -0.000602
     4  H    0.000019   0.000003
     5  C   -0.009996  -0.004795
     6  C   -0.001867  -0.000259
     7  H    0.001261   0.000537
     8  H   -0.000004  -0.000001
     9  C   -0.002263  -0.000603
    10  H    0.000019   0.000003
    11  H    0.001261   0.000537
    12  N    0.311228   0.357603
    13  H    0.453660  -0.015215
    14  H   -0.015215   0.356869
 Mulliken atomic charges:
              1
     1  C   -0.187024
     2  C    0.074610
     3  C   -0.040956
     4  H    0.143227
     5  C   -0.187035
     6  C   -0.208069
     7  H    0.160754
     8  H    0.139965
     9  C   -0.040954
    10  H    0.143227
    11  H    0.160754
    12  N   -0.742352
    13  H    0.273906
    14  H    0.309947
 Sum of Mulliken atomic charges =   0.00000
 Mulliken charges with hydrogens summed into heavy atoms:
              1
     1  C   -0.026269
     2  C    0.074610
     3  C    0.102270
     5  C   -0.026281
     6  C   -0.068104
     9  C    0.102273
    12  N   -0.158499
 Sum of Mulliken charges with hydrogens summed into heavy atoms =   0.00000
 Electronic spatial extent (au):  <R**2>=            745.0586
 Charge=              0.0000 electrons
 Dipole moment (field-independent basis, Debye):
    X=              0.8746    Y=              0.0000    Z=              0.2837  Tot=              0.9194
 Quadrupole moment (field-independent basis, Debye-Ang):
   XX=            -38.9024   YY=            -39.3381   ZZ=            -43.7765
   XY=              0.0000   XZ=             -0.1914   YZ=             -0.0005
 Traceless Quadrupole moment (field-independent basis, Debye-Ang):
   XX=              1.7699   YY=              1.3342   ZZ=             -3.1041
   XY=              0.0000   XZ=             -0.1914   YZ=             -0.0005
 Octapole moment (field-independent basis, Debye-Ang**2):
  XXX=              0.4210  YYY=             -0.0002  ZZZ=              1.7410  XYY=              7.1052
  XXY=              0.0006  XXZ=             -2.2924  XZZ=            -13.4558  YZZ=             -0.0002
  YYZ=             -0.4417  XYZ=              0.0016
 Hexadecapole moment (field-independent basis, Debye-Ang**3):
 XXXX=           -601.5348 YYYY=           -270.4073 ZZZZ=            -59.1394 XXXY=             -0.0020
 XXXZ=             16.9129 YYYX=             -0.0005 YYYZ=              0.0001 ZZZX=             -4.1185
 ZZZY=             -0.0011 XXYY=           -168.0055 XXZZ=           -102.1546 YYZZ=            -68.1255
 XXYZ=             -0.0050 YYXZ=              0.7993 ZZXY=              0.0006
 N-N= 2.633981492337D+02 E-N=-1.192561831291D+03  KE= 2.848619597335D+02
 Calling FoFJK, ICntrl=      2127 FMM=F ISym2X=0 I1Cent= 0 IOpClX= 0 NMat=1 NMatS=1 NMatT=0.
 ***** Axes restored to original set *****
 -------------------------------------------------------------------
 Center     Atomic                   Forces (Hartrees/Bohr)
 Number     Number              X              Y              Z
 -------------------------------------------------------------------
      1        6          -0.018414543    0.001899641    0.000560388
      2        6          -0.080399471    0.000010706   -0.027260640
      3        6           0.000433267   -0.004330543    0.001676339
      4        1          -0.000734718    0.000162314   -0.000024008
      5        6          -0.018402758   -0.001907036    0.000564007
      6        6           0.001141761    0.000004948   -0.000286737
      7        1          -0.000452199    0.000430411   -0.000644892
      8        1           0.000032433   -0.000000255   -0.000122825
      9        6           0.000421040    0.004325428    0.001672702
     10        1          -0.000733971   -0.000161543   -0.000023567
     11        1          -0.000451016   -0.000430231   -0.000644351
     12        7           0.112176246   -0.000016541    0.153787055
     13        1          -0.000004108    0.000013736   -0.137314501
     14        1           0.005388038   -0.000001034    0.008061030
 -------------------------------------------------------------------
 Cartesian Forces:  Max     0.153787055 RMS     0.038767833

 GradGradGradGradGradGradGradGradGradGradGradGradGradGradGradGradGradGrad
 Berny optimization.
 Internal  Forces:  Max     0.135246616 RMS     0.023792575
 Search for a local minimum.
 Step number   1 out of a maximum of   73
 All quantities printed in internal units (Hartrees-Bohrs-Radians)
 Mixed Optimization -- RFO/linear search
 Second derivative matrix not updated -- first step.
     Eigenvalues ---    0.00230   0.00230   0.01658   0.02296   0.02309
     Eigenvalues ---    0.02312   0.02322   0.02330   0.02331   0.02331
     Eigenvalues ---    0.02332   0.14406   0.16000   0.16000   0.16000
     Eigenvalues ---    0.16000   0.16000   0.16000   0.16000   0.17159
     Eigenvalues ---    0.21999   0.22000   0.23478   0.24983   0.36677
     Eigenvalues ---    0.36686   0.36686   0.36814   0.36814   0.43854
     Eigenvalues ---    0.43955   0.47688   0.48355   0.48550   0.48765
     Eigenvalues ---    0.488021000.000001000.000001000.000001000.00000
     Eigenvalues --- 1000.000001000.000001000.000001000.000001000.00000
     Eigenvalues --- 1000.000001000.000001000.000001000.000001000.00000
     Eigenvalues --- 1000.000001000.000001000.000001000.000001000.00000
     Eigenvalues --- 1000.000001000.000001000.000001000.000001000.00000
     Eigenvalues --- 1000.000001000.000001000.00000
 RFO step:  Lambda=-1.24551637D-01 EMin= 2.30000000D-03
 Linear search not attempted -- first point.
 Maximum step size (   0.300) exceeded in Quadratic search.
    -- Step size scaled by   0.453
 Iteration  1 RMS(Cart)=  0.04718975 RMS(Int)=  0.00158680
 Iteration  2 RMS(Cart)=  0.00192416 RMS(Int)=  0.00001639
 Iteration  3 RMS(Cart)=  0.00000615 RMS(Int)=  0.00001563
 Iteration  4 RMS(Cart)=  0.00000000 RMS(Int)=  0.00001563
 Variable       Old X    -DE/DX   Delta X   Delta X   Delta X     New X
                                 (Linear)    (Quad)   (Total)
    R1        2.61662  -0.01259   0.00000  -0.00970  -0.00968   2.60694
    R2        2.61131   0.00031   0.00000   0.00023   0.00023   2.61153
    R3        2.02828  -0.00014   0.00000  -0.00013  -0.00013   2.02815
    R4        2.61658  -0.01259   0.00000  -0.00969  -0.00967   2.60691
    R5        3.37678  -0.11831   0.00000  -0.19965  -0.19965   3.17713
    R6        2.03023  -0.00022   0.00000  -0.00021  -0.00021   2.03002
    R7        2.61086   0.00121   0.00000   0.00118   0.00117   2.61203
    R8        2.02828  -0.00014   0.00000  -0.00013  -0.00013   2.02815
    R9        2.61134   0.00030   0.00000   0.00022   0.00022   2.61156
   R10        2.03036   0.00003   0.00000   0.00003   0.00003   2.03039
   R11        2.61083   0.00121   0.00000   0.00119   0.00117   2.61200
   R12        2.03023  -0.00022   0.00000  -0.00021  -0.00021   2.03002
   R13        2.51400  -0.13525   0.00000  -0.20702  -0.20702   2.30698
   R14        1.88973  -0.00965   0.00000  -0.00728  -0.00728   1.88245
    A1        2.09731  -0.00820   0.00000  -0.01104  -0.01102   2.08629
    A2        2.08805   0.00348   0.00000   0.00453   0.00452   2.09258
    A3        2.09782   0.00472   0.00000   0.00651   0.00650   2.10432
    A4        2.08707   0.01683   0.00000   0.01971   0.01974   2.10681
    A5        2.09776  -0.00838   0.00000  -0.00975  -0.00977   2.08798
    A6        2.09778  -0.00839   0.00000  -0.00975  -0.00978   2.08800
    A7        2.08956  -0.00073   0.00000  -0.00157  -0.00156   2.08800
    A8        2.09639   0.00000   0.00000   0.00081   0.00079   2.09718
    A9        2.09723   0.00073   0.00000   0.00076   0.00077   2.09800
   A10        2.08807   0.00348   0.00000   0.00453   0.00452   2.09259
   A11        2.09731  -0.00820   0.00000  -0.01104  -0.01102   2.08629
   A12        2.09781   0.00472   0.00000   0.00651   0.00650   2.10431
   A13        2.09567   0.00022   0.00000  -0.00037  -0.00036   2.09532
   A14        2.09182  -0.00044   0.00000   0.00075   0.00072   2.09254
   A15        2.09568   0.00022   0.00000  -0.00037  -0.00036   2.09533
   A16        2.09639   0.00001   0.00000   0.00081   0.00079   2.09718
   A17        2.08954  -0.00073   0.00000  -0.00156  -0.00156   2.08799
   A18        2.09724   0.00073   0.00000   0.00076   0.00077   2.09801
   A19        1.71134   0.03922   0.00000   0.06248   0.06248   1.77383
   A20        2.28592  -0.01876   0.00000  -0.02989  -0.02989   2.25603
   A21        2.28592  -0.02046   0.00000  -0.03259  -0.03259   2.25333
    D1       -0.01336  -0.00027   0.00000  -0.00048  -0.00047  -0.01383
    D2       -3.11831  -0.00216   0.00000  -0.00697  -0.00699  -3.12530
    D3        3.12726   0.00011   0.00000   0.00069   0.00070   3.12796
    D4        0.02231  -0.00178   0.00000  -0.00580  -0.00582   0.01649
    D5       -3.13900   0.00009   0.00000   0.00028   0.00027  -3.13873
    D6        0.00570   0.00015   0.00000   0.00047   0.00046   0.00615
    D7        0.00357  -0.00029   0.00000  -0.00090  -0.00090   0.00267
    D8       -3.13492  -0.00023   0.00000  -0.00071  -0.00072  -3.13563
    D9       -3.12726  -0.00011   0.00000  -0.00069  -0.00070  -3.12796
   D10        0.01338   0.00027   0.00000   0.00048   0.00047   0.01385
   D11       -0.02231   0.00178   0.00000   0.00580   0.00582  -0.01649
   D12        3.11834   0.00216   0.00000   0.00697   0.00698   3.12532
   D13       -1.58932   0.00122   0.00000   0.00357   0.00354  -1.58579
   D14        1.55227   0.00122   0.00000   0.00357   0.00354   1.55580
   D15        1.58913  -0.00122   0.00000  -0.00357  -0.00354   1.58559
   D16       -1.55246  -0.00122   0.00000  -0.00357  -0.00353  -1.55600
   D17        3.13939  -0.00009   0.00000  -0.00026  -0.00026   3.13913
   D18        0.00202  -0.00022   0.00000  -0.00067  -0.00067   0.00135
   D19        0.00092  -0.00002   0.00000  -0.00007  -0.00007   0.00085
   D20       -3.13646  -0.00016   0.00000  -0.00047  -0.00048  -3.13694
   D21       -0.00574  -0.00015   0.00000  -0.00046  -0.00045  -0.00620
   D22        3.13899  -0.00009   0.00000  -0.00028  -0.00027   3.13872
   D23        3.13489   0.00023   0.00000   0.00071   0.00072   3.13561
   D24       -0.00356   0.00029   0.00000   0.00090   0.00090  -0.00266
   D25       -0.00199   0.00022   0.00000   0.00067   0.00067  -0.00132
   D26        3.13645   0.00016   0.00000   0.00047   0.00048   3.13693
   D27       -3.13937   0.00009   0.00000   0.00026   0.00026  -3.13911
   D28       -0.00093   0.00002   0.00000   0.00007   0.00007  -0.00086
         Item               Value     Threshold  Converged?
 Maximum Force            0.135247     0.000450     NO 
 RMS     Force            0.023793     0.000300     NO 
 Maximum Displacement     0.210956     0.001800     NO 
 RMS     Displacement     0.048090     0.001200     NO 
 Predicted change in Energy=-4.926689D-02
 GradGradGradGradGradGradGradGradGradGradGradGradGradGradGradGradGradGrad

                          Input orientation:                          
 ---------------------------------------------------------------------
 Center     Atomic      Atomic             Coordinates (Angstroms)
 Number     Number       Type             X           Y           Z
 ---------------------------------------------------------------------
      1          6           0        0.177421    1.198964   -0.005038
      2          6           0       -0.504907   -0.000007   -0.001613
      3          6           0        1.559348    1.196397    0.004641
      4          1           0        2.092254    2.129136    0.004665
      5          6           0        0.177416   -1.198962   -0.005044
      6          6           0        2.251552   -0.000002    0.010305
      7          1           0       -0.366620   -2.124054   -0.014995
      8          1           0        3.325974    0.000005    0.015540
      9          6           0        1.559360   -1.196390    0.004661
     10          1           0        2.092257   -2.129135    0.004691
     11          1           0       -0.366632    2.124046   -0.014985
     12          7           0       -2.185794    0.000004   -0.037176
     13          1           0       -2.457192   -0.000113    1.153077
     14          1           0       -2.799755    0.000084   -0.821628
 ---------------------------------------------------------------------
                    Distance matrix (angstroms):
                    1          2          3          4          5
     1  C    0.000000
     2  C    1.379534   0.000000
     3  C    1.381964   2.385911   0.000000
     4  H    2.128827   3.358353   1.074240   0.000000
     5  C    2.397925   1.379517   2.765424   3.839653   0.000000
     6  C    2.395783   2.756485   1.382226   2.135096   2.395784
     7  H    3.367272   2.128585   3.838636   4.912848   1.073252
     8  H    3.369171   3.830919   2.133645   2.460769   3.369178
     9  C    2.765424   2.385910   2.392787   3.367953   1.381980
    10  H    3.839653   3.358346   3.367960   4.258271   2.128834
    11  H    1.073252   2.128592   2.137830   2.458970   3.367264
    12  N    2.650154   1.681263   3.931818   4.778771   2.650153
    13  H    3.117724   2.268199   4.345473   5.152671   3.117634
    14  H    3.311753   2.436956   4.595179   5.398831   3.311808
                    6          7          8          9         10
     6  C    0.000000
     7  H    3.371508   0.000000
     8  H    1.074434   4.260024   0.000000
     9  C    1.382212   2.137836   2.133637   0.000000
    10  H    2.135091   2.458961   2.460774   1.074240   0.000000
    11  H    3.371514   4.248100   4.260026   3.838636   4.912848
    12  N    4.437600   2.796696   5.512020   3.931829   4.778776
    13  H    4.845431   3.200939   5.893980   4.345414   5.152573
    14  H    5.119358   3.329079   6.182670   4.595236   5.398904
                   11         12         13         14
    11  H    0.000000
    12  N    2.796676   0.000000
    13  H    3.201073   1.220802   0.000000
    14  H    3.328960   0.996150   2.004197   0.000000
 Stoichiometry    C6H7N
 Framework group  C1[X(C6H7N)]
 Deg. of freedom    36
 Full point group                 C1      NOp   1
 Largest Abelian subgroup         C1      NOp   1
 Largest concise Abelian subgroup C1      NOp   1
                         Standard orientation:                         
 ---------------------------------------------------------------------
 Center     Atomic      Atomic             Coordinates (Angstroms)
 Number     Number       Type             X           Y           Z
 ---------------------------------------------------------------------
      1          6           0       -0.173415    1.198964   -0.006873
      2          6           0       -0.855731   -0.000007   -0.001769
      3          6           0        1.208532    1.196397   -0.000612
      4          1           0        1.741437    2.129137   -0.001900
      5          6           0       -0.173418   -1.198961   -0.006895
      6          6           0        1.900749   -0.000001    0.003332
      7          1           0       -0.717477   -2.124054   -0.015507
      8          1           0        2.975180    0.000006    0.005909
      9          6           0        1.208545   -1.196390   -0.000608
     10          1           0        1.741441   -2.129134   -0.001902
     11          1           0       -0.717490    2.124046   -0.015469
     12          7           0       -2.536701    0.000004   -0.033174
     13          1           0       -2.805155   -0.000122    1.157746
     14          1           0       -3.152601    0.000089   -0.816105
 ---------------------------------------------------------------------
 Rotational constants (GHZ):      5.6707448      2.3607883      1.6895539
 Standard basis: 6-311+G(2df,p) (5D, 7F)
 There are   280 symmetry adapted basis functions of A   symmetry.
 Integral buffers will be    131072 words long.
 Raffenetti 1 integral format.
 Two-electron integral symmetry is turned on.
   280 basis functions,   420 primitive gaussians,   315 cartesian basis functions
    25 alpha electrons       25 beta electrons
       nuclear repulsion energy       266.2265675003 Hartrees.
 NAtoms=   14 NActive=   14 NUniq=   14 SFac= 7.50D-01 NAtFMM=   80 NAOKFM=F Big=F
 One-electron integrals computed using PRISM.
 NBasis=   280 RedAO= T  NBF=   280
 NBsUse=   280 1.00D-06 NBFU=   280
 Initial guess read from the read-write file.
 B after Tr=     0.000000    0.000000    0.000000
         Rot=    1.000000    0.000000    0.000000    0.000000 Ang=   0.00 deg.
 Initial guess orbital symmetries:
       Occupied  (A) (A) (A) (A) (A) (A) (A) (A) (A) (A) (A) (A)
                 (A) (A) (A) (A) (A) (A) (A) (A) (A) (A) (A) (A)
                 (A)
       Virtual   (A) (A) (A) (A) (A) (A) (A) (A) (A) (A) (A) (A)
                 (A) (A) (A) (A) (A) (A) (A) (A) (A) (A) (A) (A)
                 (A) (A) (A) (A) (A) (A) (A) (A) (A) (A) (A) (A)
                 (A) (A) (A) (A) (A) (A) (A) (A) (A) (A) (A) (A)
                 (A) (A) (A) (A) (A) (A) (A) (A) (A) (A) (A) (A)
                 (A) (A) (A) (A) (A) (A) (A) (A) (A) (A) (A) (A)
                 (A) (A) (A) (A) (A) (A) (A) (A) (A) (A) (A) (A)
                 (A) (A) (A) (A) (A) (A) (A) (A) (A) (A) (A) (A)
                 (A) (A) (A) (A) (A) (A) (A) (A) (A) (A) (A) (A)
                 (A) (A) (A) (A) (A) (A) (A) (A) (A) (A) (A) (A)
                 (A) (A) (A) (A) (A) (A) (A) (A) (A) (A) (A) (A)
                 (A) (A) (A) (A) (A) (A) (A) (A) (A) (A) (A) (A)
                 (A) (A) (A) (A) (A) (A) (A) (A) (A) (A) (A) (A)
                 (A) (A) (A) (A) (A) (A) (A) (A) (A) (A) (A) (A)
                 (A) (A) (A) (A) (A) (A) (A) (A) (A) (A) (A) (A)
                 (A) (A) (A) (A) (A) (A) (A) (A) (A) (A) (A) (A)
                 (A) (A) (A) (A) (A) (A) (A) (A) (A) (A) (A) (A)
                 (A) (A) (A) (A) (A) (A) (A) (A) (A) (A) (A) (A)
                 (A) (A) (A) (A) (A) (A) (A) (A) (A) (A) (A) (A)
                 (A) (A) (A) (A) (A) (A) (A) (A) (A) (A) (A) (A)
                 (A) (A) (A) (A) (A) (A) (A) (A) (A) (A) (A) (A)
                 (A) (A) (A)
 Harris functional with IExCor=  205 diagonalized for initial guess.
 ExpMin= 4.38D-02 ExpMax= 6.29D+03 ExpMxC= 9.49D+02 IAcc=2 IRadAn=         0 AccDes= 0.00D+00
 HarFok:  IExCor=  205 AccDes= 0.00D+00 IRadAn=         0 IDoV= 1
 ScaDFX=  1.000000  1.000000  1.000000  1.000000
 FoFCou: FMM=F IPFlag=           0 FMFlag=      100000 FMFlg1=           0
         NFxFlg=           0 DoJE=T BraDBF=F KetDBF=T FulRan=T
         Omega=  0.000000  0.000000  1.000000  0.000000  0.000000 ICntrl=     500 IOpCl=  0
         NMat0=    1 NMatS0=    1 NMatT0=    0 NMatD0=    1 NMtDS0=    0 NMtDT0=    0
         I1Cent=           4 NGrid=           0.
 Petite list used in FoFCou.
 Requested convergence on RMS density matrix=1.00D-08 within 128 cycles.
 Requested convergence on MAX density matrix=1.00D-06.
 Requested convergence on             energy=1.00D-06.
 No special actions if energy rises.
 Keep R1 ints in memory in canonical form, NReq=1254649062.
 DSYEVD returned Info=       59571 IAlg= 4 N=   280 NDim=   280 NE2=      369005 trying DSYEV.
 SCF Done:  E(RHF) =  -285.734031210     A.U. after   14 cycles
             Convg  =    0.4041D-08             -V/T =  2.0023
 Calling FoFJK, ICntrl=      2127 FMM=F ISym2X=0 I1Cent= 0 IOpClX= 0 NMat=1 NMatS=1 NMatT=0.
 ***** Axes restored to original set *****
 -------------------------------------------------------------------
 Center     Atomic                   Forces (Hartrees/Bohr)
 Number     Number              X              Y              Z
 -------------------------------------------------------------------
      1        6          -0.008314758    0.001361770    0.000971073
      2        6          -0.091134867    0.000009472   -0.025214712
      3        6           0.000738976   -0.002279031    0.001243765
      4        1           0.000021819    0.000081444   -0.000026835
      5        6          -0.008304713   -0.001368484    0.000974342
      6        6           0.000682240    0.000004464   -0.000211059
      7        1          -0.000452072    0.000678488   -0.000501317
      8        1           0.000011332   -0.000000241   -0.000055655
      9        6           0.000728584    0.002274479    0.001240613
     10        1           0.000022567   -0.000080833   -0.000026435
     11        1          -0.000451058   -0.000678160   -0.000500838
     12        7           0.097014531   -0.000014916    0.139948070
     13        1           0.004544537    0.000012325   -0.124655218
     14        1           0.004892882   -0.000000779    0.006814205
 -------------------------------------------------------------------
 Cartesian Forces:  Max     0.139948070 RMS     0.035766834

 GradGradGradGradGradGradGradGradGradGradGradGradGradGradGradGradGradGrad
 Berny optimization.
 Using GEDIIS/GDIIS optimizer.
 Internal  Forces:  Max     0.122546105 RMS     0.021307475
 Search for a local minimum.
 Step number   2 out of a maximum of   73
 All quantities printed in internal units (Hartrees-Bohrs-Radians)
 Mixed Optimization -- RFO/linear search
 Update second derivatives using D2CorX and points    1    2
 DE= -5.40D-02 DEPred=-4.93D-02 R= 1.10D+00
 SS=  1.41D+00  RLast= 3.00D-01 DXNew= 5.0454D-01 9.0000D-01
 Trust test= 1.10D+00 RLast= 3.00D-01 DXMaxT set to 5.05D-01
 Use linear search instead of GDIIS.
 Linear search step of   0.600 exceeds DXMaxT=   0.505 but not scaled.
 Quartic linear search produced a step of  2.00000.
 Iteration  1 RMS(Cart)=  0.05421310 RMS(Int)=  0.03825328
 Iteration  2 RMS(Cart)=  0.04989132 RMS(Int)=  0.00356914
 Iteration  3 RMS(Cart)=  0.00324411 RMS(Int)=  0.00009526
 Iteration  4 RMS(Cart)=  0.00000227 RMS(Int)=  0.00009525
 Iteration  5 RMS(Cart)=  0.00000000 RMS(Int)=  0.00009525
 Variable       Old X    -DE/DX   Delta X   Delta X   Delta X     New X
                                 (Linear)    (Quad)   (Total)
    R1        2.60694  -0.00525  -0.01936   0.00000  -0.01925   2.58769
    R2        2.61153   0.00112   0.00045   0.00000   0.00045   2.61199
    R3        2.02815  -0.00035  -0.00025   0.00000  -0.00025   2.02790
    R4        2.60691  -0.00524  -0.01935   0.00000  -0.01924   2.58767
    R5        3.17713  -0.10690  -0.39931   0.00000  -0.39931   2.77782
    R6        2.03002   0.00008  -0.00041   0.00000  -0.00041   2.02961
    R7        2.61203   0.00031   0.00233   0.00000   0.00223   2.61426
    R8        2.02815  -0.00035  -0.00025   0.00000  -0.00025   2.02790
    R9        2.61156   0.00111   0.00044   0.00000   0.00044   2.61201
   R10        2.03039   0.00001   0.00006   0.00000   0.00006   2.03044
   R11        2.61200   0.00032   0.00234   0.00000   0.00224   2.61424
   R12        2.03002   0.00008  -0.00041   0.00000  -0.00041   2.02961
   R13        2.30698  -0.12255  -0.41404   0.00000  -0.41404   1.89295
   R14        1.88245  -0.00838  -0.01455   0.00000  -0.01455   1.86790
    A1        2.08629  -0.00350  -0.02204   0.00000  -0.02193   2.06436
    A2        2.09258   0.00101   0.00905   0.00000   0.00899   2.10156
    A3        2.10432   0.00249   0.01300   0.00000   0.01294   2.11726
    A4        2.10681   0.00707   0.03949   0.00000   0.03966   2.14647
    A5        2.08798  -0.00351  -0.01955   0.00000  -0.01969   2.06829
    A6        2.08800  -0.00351  -0.01955   0.00000  -0.01970   2.06830
    A7        2.08800  -0.00008  -0.00312   0.00000  -0.00307   2.08493
    A8        2.09718   0.00011   0.00158   0.00000   0.00148   2.09867
    A9        2.09800  -0.00003   0.00153   0.00000   0.00158   2.09958
   A10        2.09259   0.00101   0.00904   0.00000   0.00898   2.10157
   A11        2.08629  -0.00350  -0.02204   0.00000  -0.02193   2.06436
   A12        2.10431   0.00250   0.01300   0.00000   0.01294   2.11725
   A13        2.09532   0.00014  -0.00071   0.00000  -0.00061   2.09471
   A14        2.09254  -0.00028   0.00143   0.00000   0.00123   2.09376
   A15        2.09533   0.00014  -0.00071   0.00000  -0.00061   2.09471
   A16        2.09718   0.00011   0.00158   0.00000   0.00148   2.09867
   A17        2.08799  -0.00007  -0.00311   0.00000  -0.00306   2.08492
   A18        2.09801  -0.00003   0.00153   0.00000   0.00158   2.09959
   A19        1.77383   0.03559   0.12497   0.00000   0.12497   1.89879
   A20        2.25603  -0.01747  -0.05978   0.00000  -0.05978   2.19625
   A21        2.25333  -0.01812  -0.06519   0.00000  -0.06519   2.18814
    D1       -0.01383  -0.00005  -0.00094   0.00000  -0.00085  -0.01467
    D2       -3.12530  -0.00185  -0.01397   0.00000  -0.01407  -3.13937
    D3        3.12796   0.00023   0.00140   0.00000   0.00146   3.12942
    D4        0.01649  -0.00157  -0.01164   0.00000  -0.01176   0.00472
    D5       -3.13873   0.00004   0.00054   0.00000   0.00050  -3.13822
    D6        0.00615   0.00006   0.00091   0.00000   0.00086   0.00701
    D7        0.00267  -0.00024  -0.00181   0.00000  -0.00183   0.00084
    D8       -3.13563  -0.00022  -0.00144   0.00000  -0.00148  -3.13711
    D9       -3.12796  -0.00023  -0.00140   0.00000  -0.00146  -3.12942
   D10        0.01385   0.00005   0.00093   0.00000   0.00084   0.01469
   D11       -0.01649   0.00157   0.01164   0.00000   0.01176  -0.00472
   D12        3.12532   0.00185   0.01397   0.00000   0.01407   3.13939
   D13       -1.58579   0.00098   0.00707   0.00000   0.00683  -1.57896
   D14        1.55580   0.00098   0.00707   0.00000   0.00683   1.56264
   D15        1.58559  -0.00098  -0.00707   0.00000  -0.00683   1.57876
   D16       -1.55600  -0.00098  -0.00707   0.00000  -0.00683  -1.56283
   D17        3.13913  -0.00004  -0.00052   0.00000  -0.00051   3.13862
   D18        0.00135  -0.00017  -0.00135   0.00000  -0.00137  -0.00003
   D19        0.00085  -0.00001  -0.00014   0.00000  -0.00015   0.00070
   D20       -3.13694  -0.00014  -0.00096   0.00000  -0.00101  -3.13795
   D21       -0.00620  -0.00006  -0.00090   0.00000  -0.00085  -0.00704
   D22        3.13872  -0.00004  -0.00054   0.00000  -0.00050   3.13822
   D23        3.13561   0.00022   0.00144   0.00000   0.00148   3.13709
   D24       -0.00266   0.00024   0.00180   0.00000   0.00182  -0.00083
   D25       -0.00132   0.00017   0.00134   0.00000   0.00137   0.00005
   D26        3.13693   0.00014   0.00097   0.00000   0.00101   3.13794
   D27       -3.13911   0.00004   0.00052   0.00000   0.00051  -3.13860
   D28       -0.00086   0.00001   0.00014   0.00000   0.00015  -0.00071
         Item               Value     Threshold  Converged?
 Maximum Force            0.122546     0.000450     NO 
 RMS     Force            0.021307     0.000300     NO 
 Maximum Displacement     0.417831     0.001800     NO 
 RMS     Displacement     0.099348     0.001200     NO 
 Predicted change in Energy=-8.947818D-02
 GradGradGradGradGradGradGradGradGradGradGradGradGradGradGradGradGradGrad

                          Input orientation:                          
 ---------------------------------------------------------------------
 Center     Atomic      Atomic             Coordinates (Angstroms)
 Number     Number       Type             X           Y           Z
 ---------------------------------------------------------------------
      1          6           0        0.126567    1.203308    0.011466
      2          6           0       -0.526882   -0.000006    0.023712
      3          6           0        1.508737    1.197844    0.003422
      4          1           0        2.040587    2.130912   -0.003071
      5          6           0        0.126566   -1.203308    0.011462
      6          6           0        2.200808    0.000000   -0.000614
      7          1           0       -0.427476   -2.122341    0.010580
      8          1           0        3.275235    0.000005   -0.009634
      9          6           0        1.508746   -1.197839    0.003439
     10          1           0        2.040590   -2.130910   -0.003048
     11          1           0       -0.427488    2.122332    0.010588
     12          7           0       -1.996829   -0.000003    0.029440
     13          1           0       -2.315829   -0.000096    0.978992
     14          1           0       -2.578649    0.000076   -0.769632
 ---------------------------------------------------------------------
                    Distance matrix (angstroms):
                    1          2          3          4          5
     1  C    0.000000
     2  C    1.369346   0.000000
     3  C    1.382204   2.361990   0.000000
     4  H    2.127001   3.336678   1.074022   0.000000
     5  C    2.406616   1.369336   2.770558   3.844569   0.000000
     6  C    2.398035   2.727798   1.383406   2.136929   2.398036
     7  H    3.371484   2.124702   3.843514   4.917487   1.073119
     8  H    3.370829   3.802263   2.134363   2.462756   3.370834
     9  C    2.770557   2.361990   2.395683   3.370977   1.382214
    10  H    3.844568   3.336672   3.370981   4.261822   2.127004
    11  H    1.073119   2.124704   2.145623   2.468128   3.371477
    12  N    2.440715   1.469958   3.704660   4.565368   2.440712
    13  H    2.889565   2.028027   4.124815   4.948131   2.889486
    14  H    3.062037   2.199805   4.328855   5.144455   3.062095
                    6          7          8          9         10
     6  C    0.000000
     7  H    3.378214   0.000000
     8  H    1.074464   4.267883   0.000000
     9  C    1.383396   2.145626   2.134358   0.000000
    10  H    2.136926   2.468119   2.462760   1.074021   0.000000
    11  H    3.378219   4.244673   4.267885   3.843513   4.917486
    12  N    4.197744   2.639610   5.272208   3.704665   4.565367
    13  H    4.621649   3.001270   5.677797   4.124762   4.948046
    14  H    4.840929   3.121046   5.903012   4.328906   5.144523
                   11         12         13         14
    11  H    0.000000
    12  N    2.639601   0.000000
    13  H    3.001389   1.001704   0.000000
    14  H    3.120930   0.988449   1.768265   0.000000
 Stoichiometry    C6H7N
 Framework group  C1[X(C6H7N)]
 Deg. of freedom    36
 Full point group                 C1      NOp   1
 Largest Abelian subgroup         C1      NOp   1
 Largest concise Abelian subgroup C1      NOp   1
                         Standard orientation:                         
 ---------------------------------------------------------------------
 Center     Atomic      Atomic             Coordinates (Angstroms)
 Number     Number       Type             X           Y           Z
 ---------------------------------------------------------------------
      1          6           0       -0.219320    1.203309   -0.005296
      2          6           0       -0.872855   -0.000004    0.000970
      3          6           0        1.162865    1.197844   -0.000705
      4          1           0        1.694753    2.130911   -0.002331
      5          6           0       -0.219325   -1.203307   -0.005313
      6          6           0        1.854943   -0.000002    0.001579
      7          1           0       -0.773337   -2.122339   -0.011265
      8          1           0        2.929407    0.000002    0.002381
      9          6           0        1.162871   -1.197840   -0.000701
     10          1           0        1.694751   -2.130911   -0.002331
     11          1           0       -0.773343    2.122334   -0.011234
     12          7           0       -2.342794    0.000001   -0.006740
     13          1           0       -2.670461   -0.000097    0.939856
     14          1           0       -2.917284    0.000085   -0.811098
 ---------------------------------------------------------------------
 Rotational constants (GHZ):      5.6801360      2.6069954      1.8067408
 Standard basis: 6-311+G(2df,p) (5D, 7F)
 There are   280 symmetry adapted basis functions of A   symmetry.
 Integral buffers will be    131072 words long.
 Raffenetti 1 integral format.
 Two-electron integral symmetry is turned on.
   280 basis functions,   420 primitive gaussians,   315 cartesian basis functions
    25 alpha electrons       25 beta electrons
       nuclear repulsion energy       272.7882617384 Hartrees.
 NAtoms=   14 NActive=   14 NUniq=   14 SFac= 7.50D-01 NAtFMM=   80 NAOKFM=F Big=F
 One-electron integrals computed using PRISM.
 NBasis=   280 RedAO= T  NBF=   280
 NBsUse=   280 1.00D-06 NBFU=   280
 Initial guess read from the read-write file.
 B after Tr=     0.000000    0.000000    0.000000
         Rot=    1.000000    0.000000    0.000000    0.000000 Ang=   0.00 deg.
 Initial guess orbital symmetries:
       Occupied  (A) (A) (A) (A) (A) (A) (A) (A) (A) (A) (A) (A)
                 (A) (A) (A) (A) (A) (A) (A) (A) (A) (A) (A) (A)
                 (A)
       Virtual   (A) (A) (A) (A) (A) (A) (A) (A) (A) (A) (A) (A)
                 (A) (A) (A) (A) (A) (A) (A) (A) (A) (A) (A) (A)
                 (A) (A) (A) (A) (A) (A) (A) (A) (A) (A) (A) (A)
                 (A) (A) (A) (A) (A) (A) (A) (A) (A) (A) (A) (A)
                 (A) (A) (A) (A) (A) (A) (A) (A) (A) (A) (A) (A)
                 (A) (A) (A) (A) (A) (A) (A) (A) (A) (A) (A) (A)
                 (A) (A) (A) (A) (A) (A) (A) (A) (A) (A) (A) (A)
                 (A) (A) (A) (A) (A) (A) (A) (A) (A) (A) (A) (A)
                 (A) (A) (A) (A) (A) (A) (A) (A) (A) (A) (A) (A)
                 (A) (A) (A) (A) (A) (A) (A) (A) (A) (A) (A) (A)
                 (A) (A) (A) (A) (A) (A) (A) (A) (A) (A) (A) (A)
                 (A) (A) (A) (A) (A) (A) (A) (A) (A) (A) (A) (A)
                 (A) (A) (A) (A) (A) (A) (A) (A) (A) (A) (A) (A)
                 (A) (A) (A) (A) (A) (A) (A) (A) (A) (A) (A) (A)
                 (A) (A) (A) (A) (A) (A) (A) (A) (A) (A) (A) (A)
                 (A) (A) (A) (A) (A) (A) (A) (A) (A) (A) (A) (A)
                 (A) (A) (A) (A) (A) (A) (A) (A) (A) (A) (A) (A)
                 (A) (A) (A) (A) (A) (A) (A) (A) (A) (A) (A) (A)
                 (A) (A) (A) (A) (A) (A) (A) (A) (A) (A) (A) (A)
                 (A) (A) (A) (A) (A) (A) (A) (A) (A) (A) (A) (A)
                 (A) (A) (A) (A) (A) (A) (A) (A) (A) (A) (A) (A)
                 (A) (A) (A)
 Harris functional with IExCor=  205 diagonalized for initial guess.
 ExpMin= 4.38D-02 ExpMax= 6.29D+03 ExpMxC= 9.49D+02 IAcc=2 IRadAn=         0 AccDes= 0.00D+00
 HarFok:  IExCor=  205 AccDes= 0.00D+00 IRadAn=         0 IDoV= 1
 ScaDFX=  1.000000  1.000000  1.000000  1.000000
 FoFCou: FMM=F IPFlag=           0 FMFlag=      100000 FMFlg1=           0
         NFxFlg=           0 DoJE=T BraDBF=F KetDBF=T FulRan=T
         Omega=  0.000000  0.000000  1.000000  0.000000  0.000000 ICntrl=     500 IOpCl=  0
         NMat0=    1 NMatS0=    1 NMatT0=    0 NMatD0=    1 NMtDS0=    0 NMtDT0=    0
         I1Cent=           4 NGrid=           0.
 Petite list used in FoFCou.
 Requested convergence on RMS density matrix=1.00D-08 within 128 cycles.
 Requested convergence on MAX density matrix=1.00D-06.
 Requested convergence on             energy=1.00D-06.
 No special actions if energy rises.
 Keep R1 ints in memory in canonical form, NReq=1254649062.
 SCF Done:  E(RHF) =  -285.803552490     A.U. after   14 cycles
             Convg  =    0.2825D-08             -V/T =  2.0001
 Calling FoFJK, ICntrl=      2127 FMM=F ISym2X=0 I1Cent= 0 IOpClX= 0 NMat=1 NMatS=1 NMatT=0.
 ***** Axes restored to original set *****
 -------------------------------------------------------------------
 Center     Atomic                   Forces (Hartrees/Bohr)
 Number     Number              X              Y              Z
 -------------------------------------------------------------------
      1        6           0.015747377    0.001603051    0.001031028
      2        6          -0.065491010    0.000006184   -0.019304237
      3        6           0.001671818    0.002302609    0.000408885
      4        1           0.001647001   -0.000031838   -0.000034770
      5        6           0.015753788   -0.001607726    0.001033927
      6        6          -0.000172910    0.000003480   -0.000042047
      7        1          -0.000552349    0.001107204   -0.000238196
      8        1          -0.000042110   -0.000000220    0.000049438
      9        6           0.001665266   -0.002306110    0.000406825
     10        1           0.001647750    0.000032130   -0.000034472
     11        1          -0.000551682   -0.001106602   -0.000237772
     12        7           0.045010444   -0.000003661    0.032856775
     13        1          -0.017432094    0.000001438   -0.018879584
     14        1           0.001098713    0.000000061    0.002984199
 -------------------------------------------------------------------
 Cartesian Forces:  Max     0.065491010 RMS     0.014611047

 GradGradGradGradGradGradGradGradGradGradGradGradGradGradGradGradGradGrad
 Berny optimization.
 Using GEDIIS/GDIIS optimizer.
 Internal  Forces:  Max     0.028610756 RMS     0.006985447
 Search for a local minimum.
 Step number   3 out of a maximum of   73
 All quantities printed in internal units (Hartrees-Bohrs-Radians)
 Mixed Optimization -- RFO/linear search
 Update second derivatives using D2CorX and points    2    3
 Use linear search instead of GDIIS.
     Eigenvalues ---    0.00230   0.00230   0.01697   0.02297   0.02309
     Eigenvalues ---    0.02312   0.02322   0.02330   0.02331   0.02331
     Eigenvalues ---    0.02332   0.13852   0.15421   0.16000   0.16000
     Eigenvalues ---    0.16000   0.16000   0.16000   0.16002   0.21691
     Eigenvalues ---    0.21999   0.22068   0.24997   0.27644   0.36677
     Eigenvalues ---    0.36686   0.36688   0.36814   0.36815   0.43958
     Eigenvalues ---    0.44493   0.47643   0.48347   0.48713   0.48802
     Eigenvalues ---    0.489251000.000001000.000001000.000001000.00000
     Eigenvalues --- 1000.000001000.000001000.000001000.000001000.00000
     Eigenvalues --- 1000.000001000.000001000.000001000.000001000.00000
     Eigenvalues --- 1000.000001000.000001000.000001000.000001000.00000
     Eigenvalues --- 1000.000001000.000001000.000001000.000001000.00000
     Eigenvalues --- 1000.000001000.000001000.00000
 RFO step:  Lambda=-1.09154786D-02 EMin= 2.30000000D-03
 Quartic linear search produced a step of  0.13228.
 Iteration  1 RMS(Cart)=  0.03420744 RMS(Int)=  0.00244427
 Iteration  2 RMS(Cart)=  0.00252643 RMS(Int)=  0.00024097
 Iteration  3 RMS(Cart)=  0.00000129 RMS(Int)=  0.00024097
 Iteration  4 RMS(Cart)=  0.00000000 RMS(Int)=  0.00024097
 Variable       Old X    -DE/DX   Delta X   Delta X   Delta X     New X
                                 (Linear)    (Quad)   (Total)
    R1        2.58769   0.01268  -0.00255   0.03100   0.02865   2.61634
    R2        2.61199   0.00319   0.00006   0.00694   0.00700   2.61898
    R3        2.02790  -0.00066  -0.00003  -0.00186  -0.00189   2.02601
    R4        2.58767   0.01268  -0.00255   0.03101   0.02866   2.61633
    R5        2.77782  -0.02861  -0.05282  -0.08473  -0.13755   2.64027
    R6        2.02961   0.00079  -0.00005   0.00232   0.00226   2.03187
    R7        2.61426  -0.00151   0.00029  -0.00462  -0.00452   2.60973
    R8        2.02790  -0.00066  -0.00003  -0.00186  -0.00189   2.02601
    R9        2.61201   0.00319   0.00006   0.00693   0.00699   2.61899
   R10        2.03044  -0.00004   0.00001  -0.00013  -0.00012   2.03032
   R11        2.61424  -0.00150   0.00030  -0.00461  -0.00452   2.60972
   R12        2.02961   0.00079  -0.00005   0.00232   0.00226   2.03187
   R13        1.89295  -0.01235  -0.05477   0.03542  -0.01935   1.87359
   R14        1.86790  -0.00306  -0.00193  -0.00528  -0.00720   1.86070
    A1        2.06436   0.00728  -0.00290   0.03923   0.03655   2.10090
    A2        2.10156  -0.00470   0.00119  -0.02587  -0.02480   2.07677
    A3        2.11726  -0.00259   0.00171  -0.01335  -0.01175   2.10551
    A4        2.14647  -0.01624   0.00525  -0.07113  -0.06562   2.08085
    A5        2.06829   0.00813  -0.00260   0.03580   0.03280   2.10110
    A6        2.06830   0.00813  -0.00261   0.03580   0.03280   2.10110
    A7        2.08493   0.00114  -0.00041   0.01041   0.01009   2.09503
    A8        2.09867   0.00066   0.00020  -0.00108  -0.00106   2.09760
    A9        2.09958  -0.00180   0.00021  -0.00932  -0.00902   2.09056
   A10        2.10157  -0.00470   0.00119  -0.02588  -0.02480   2.07677
   A11        2.06436   0.00728  -0.00290   0.03923   0.03655   2.10090
   A12        2.11725  -0.00259   0.00171  -0.01335  -0.01175   2.10550
   A13        2.09471  -0.00017  -0.00008   0.00253   0.00264   2.09734
   A14        2.09376   0.00034   0.00016  -0.00505  -0.00527   2.08850
   A15        2.09471  -0.00017  -0.00008   0.00253   0.00263   2.09735
   A16        2.09867   0.00066   0.00020  -0.00108  -0.00106   2.09760
   A17        2.08492   0.00114  -0.00041   0.01041   0.01010   2.09502
   A18        2.09959  -0.00180   0.00021  -0.00933  -0.00903   2.09056
   A19        1.89879   0.02790   0.01653   0.14831   0.16484   2.06364
   A20        2.19625  -0.01314  -0.00791  -0.06925  -0.07716   2.11909
   A21        2.18814  -0.01476  -0.00862  -0.07906  -0.08768   2.10046
    D1       -0.01467   0.00028  -0.00011   0.01048   0.01000  -0.00467
    D2       -3.13937  -0.00116  -0.00186  -0.02323  -0.02475   3.11906
    D3        3.12942   0.00038   0.00019   0.01049   0.01029   3.13971
    D4        0.00472  -0.00105  -0.00156  -0.02322  -0.02447  -0.01975
    D5       -3.13822   0.00001   0.00007  -0.00204  -0.00203  -3.14025
    D6        0.00701  -0.00001   0.00011  -0.00411  -0.00408   0.00293
    D7        0.00084  -0.00010  -0.00024  -0.00207  -0.00233  -0.00149
    D8       -3.13711  -0.00012  -0.00020  -0.00413  -0.00439  -3.14150
    D9       -3.12942  -0.00038  -0.00019  -0.01048  -0.01028  -3.13970
   D10        0.01469  -0.00028   0.00011  -0.01049  -0.01001   0.00468
   D11       -0.00472   0.00105   0.00156   0.02323   0.02448   0.01976
   D12        3.13939   0.00116   0.00186   0.02322   0.02475  -3.11905
   D13       -1.57896   0.00056   0.00090   0.01553   0.01707  -1.56189
   D14        1.56264   0.00056   0.00090   0.01553   0.01707   1.57971
   D15        1.57876  -0.00056  -0.00090  -0.01559  -0.01713   1.56163
   D16       -1.56283  -0.00056  -0.00090  -0.01559  -0.01713  -1.57995
   D17        3.13862   0.00004  -0.00007   0.00208   0.00202   3.14064
   D18       -0.00003  -0.00003  -0.00018  -0.00087  -0.00110  -0.00113
   D19        0.00070   0.00001  -0.00002  -0.00004  -0.00007   0.00063
   D20       -3.13795  -0.00006  -0.00013  -0.00299  -0.00319  -3.14114
   D21       -0.00704   0.00001  -0.00011   0.00412   0.00410  -0.00294
   D22        3.13822  -0.00001  -0.00007   0.00205   0.00203   3.14025
   D23        3.13709   0.00012   0.00020   0.00413   0.00439   3.14148
   D24       -0.00083   0.00010   0.00024   0.00206   0.00232   0.00149
   D25        0.00005   0.00003   0.00018   0.00086   0.00109   0.00114
   D26        3.13794   0.00006   0.00013   0.00299   0.00319   3.14114
   D27       -3.13860  -0.00004   0.00007  -0.00209  -0.00203  -3.14063
   D28       -0.00071  -0.00001   0.00002   0.00004   0.00007  -0.00063
         Item               Value     Threshold  Converged?
 Maximum Force            0.028611     0.000450     NO 
 RMS     Force            0.006985     0.000300     NO 
 Maximum Displacement     0.184037     0.001800     NO 
 RMS     Displacement     0.034158     0.001200     NO 
 Predicted change in Energy=-8.751025D-03
 GradGradGradGradGradGradGradGradGradGradGradGradGradGradGradGradGradGrad

                          Input orientation:                          
 ---------------------------------------------------------------------
 Center     Atomic      Atomic             Coordinates (Angstroms)
 Number     Number       Type             X           Y           Z
 ---------------------------------------------------------------------
      1          6           0        0.126024    1.194302    0.013250
      2          6           0       -0.574253   -0.000004    0.023663
      3          6           0        1.511849    1.193949   -0.001765
      4          1           0        2.050241    2.124640   -0.008552
      5          6           0        0.126025   -1.194303    0.013256
      6          6           0        2.205833    0.000001   -0.009953
      7          1           0       -0.420041   -2.116914    0.019602
      8          1           0        3.280160    0.000005   -0.022478
      9          6           0        1.511856   -1.193944   -0.001749
     10          1           0        2.050247   -2.124636   -0.008527
     11          1           0       -0.420051    2.116908    0.019598
     12          7           0       -1.970782   -0.000006    0.065956
     13          1           0       -2.413217   -0.000119    0.953227
     14          1           0       -2.509208    0.000093   -0.758428
 ---------------------------------------------------------------------
                    Distance matrix (angstroms):
                    1          2          3          4          5
     1  C    0.000000
     2  C    1.384508   0.000000
     3  C    1.385907   2.403746   0.000000
     4  H    2.137432   3.376851   1.075220   0.000000
     5  C    2.388605   1.384503   2.761246   3.836465   0.000000
     6  C    2.398437   2.780290   1.381011   2.130329   2.398438
     7  H    3.355947   2.122523   3.833337   4.908550   1.072119
     8  H    3.372862   3.854690   2.133742   2.454988   3.372865
     9  C    2.761245   2.403745   2.387893   3.361980   1.385912
    10  H    3.836464   3.376847   3.361982   4.249276   2.137434
    11  H    1.072119   2.122525   2.141156   2.470464   3.355943
    12  N    2.413657   1.397168   3.682232   4.548439   2.413653
    13  H    2.959382   2.060552   4.212357   5.036077   2.959285
    14  H    2.994340   2.087035   4.262245   5.085724   2.994417
                    6          7          8          9         10
     6  C    0.000000
     7  H    3.373043   0.000000
     8  H    1.074400   4.263169   0.000000
     9  C    1.381006   2.141158   2.133740   0.000000
    10  H    2.130327   2.470460   2.454991   1.075220   0.000000
    11  H    3.373046   4.233822   4.263169   3.833336   4.908549
    12  N    4.177305   2.624546   5.251686   3.682232   4.548436
    13  H    4.718405   3.053723   5.776378   4.212291   5.035976
    14  H    4.774079   3.074356   5.835958   4.262305   5.085809
                   11         12         13         14
    11  H    0.000000
    12  N    2.624546   0.000000
    13  H    3.053879   0.991463   0.000000
    14  H    3.074217   0.984638   1.714344   0.000000
 Stoichiometry    C6H7N
 Framework group  C1[X(C6H7N)]
 Deg. of freedom    36
 Full point group                 C1      NOp   1
 Largest Abelian subgroup         C1      NOp   1
 Largest concise Abelian subgroup C1      NOp   1
                         Standard orientation:                         
 ---------------------------------------------------------------------
 Center     Atomic      Atomic             Coordinates (Angstroms)
 Number     Number       Type             X           Y           Z
 ---------------------------------------------------------------------
      1          6           0       -0.219195    1.194304   -0.008167
      2          6           0       -0.919550    0.000000   -0.010221
      3          6           0        1.166678    1.193947    0.001469
      4          1           0        1.705108    2.124636    0.004267
      5          6           0       -0.219201   -1.194301   -0.008180
      6          6           0        1.860695   -0.000003    0.005616
      7          1           0       -0.765297   -2.116910   -0.011555
      8          1           0        2.935074   -0.000002    0.012202
      9          6           0        1.166677   -1.193947    0.001466
     10          1           0        1.705101   -2.124640    0.004258
     11          1           0       -0.765294    2.116912   -0.011526
     12          7           0       -2.316610    0.000002    0.007225
     13          1           0       -2.774757   -0.000116    0.886487
     14          1           0       -2.840288    0.000109   -0.826605
 ---------------------------------------------------------------------
 Rotational constants (GHZ):      5.7389370      2.6083444      1.8123945
 Standard basis: 6-311+G(2df,p) (5D, 7F)
 There are   280 symmetry adapted basis functions of A   symmetry.
 Integral buffers will be    131072 words long.
 Raffenetti 1 integral format.
 Two-electron integral symmetry is turned on.
   280 basis functions,   420 primitive gaussians,   315 cartesian basis functions
    25 alpha electrons       25 beta electrons
       nuclear repulsion energy       273.3798183084 Hartrees.
 NAtoms=   14 NActive=   14 NUniq=   14 SFac= 7.50D-01 NAtFMM=   80 NAOKFM=F Big=F
 One-electron integrals computed using PRISM.
 NBasis=   280 RedAO= T  NBF=   280
 NBsUse=   280 1.00D-06 NBFU=   280
 Initial guess read from the read-write file.
 B after Tr=     0.000000    0.000000    0.000000
         Rot=    1.000000    0.000000    0.000000    0.000000 Ang=   0.00 deg.
 Initial guess orbital symmetries:
       Occupied  (A) (A) (A) (A) (A) (A) (A) (A) (A) (A) (A) (A)
                 (A) (A) (A) (A) (A) (A) (A) (A) (A) (A) (A) (A)
                 (A)
       Virtual   (A) (A) (A) (A) (A) (A) (A) (A) (A) (A) (A) (A)
                 (A) (A) (A) (A) (A) (A) (A) (A) (A) (A) (A) (A)
                 (A) (A) (A) (A) (A) (A) (A) (A) (A) (A) (A) (A)
                 (A) (A) (A) (A) (A) (A) (A) (A) (A) (A) (A) (A)
                 (A) (A) (A) (A) (A) (A) (A) (A) (A) (A) (A) (A)
                 (A) (A) (A) (A) (A) (A) (A) (A) (A) (A) (A) (A)
                 (A) (A) (A) (A) (A) (A) (A) (A) (A) (A) (A) (A)
                 (A) (A) (A) (A) (A) (A) (A) (A) (A) (A) (A) (A)
                 (A) (A) (A) (A) (A) (A) (A) (A) (A) (A) (A) (A)
                 (A) (A) (A) (A) (A) (A) (A) (A) (A) (A) (A) (A)
                 (A) (A) (A) (A) (A) (A) (A) (A) (A) (A) (A) (A)
                 (A) (A) (A) (A) (A) (A) (A) (A) (A) (A) (A) (A)
                 (A) (A) (A) (A) (A) (A) (A) (A) (A) (A) (A) (A)
                 (A) (A) (A) (A) (A) (A) (A) (A) (A) (A) (A) (A)
                 (A) (A) (A) (A) (A) (A) (A) (A) (A) (A) (A) (A)
                 (A) (A) (A) (A) (A) (A) (A) (A) (A) (A) (A) (A)
                 (A) (A) (A) (A) (A) (A) (A) (A) (A) (A) (A) (A)
                 (A) (A) (A) (A) (A) (A) (A) (A) (A) (A) (A) (A)
                 (A) (A) (A) (A) (A) (A) (A) (A) (A) (A) (A) (A)
                 (A) (A) (A) (A) (A) (A) (A) (A) (A) (A) (A) (A)
                 (A) (A) (A) (A) (A) (A) (A) (A) (A) (A) (A) (A)
                 (A) (A) (A)
 Harris functional with IExCor=  205 diagonalized for initial guess.
[...]
 ! A18   A(6,9,10)             119.9305         -DE/DX =    0.0                 !
 ! A19   A(2,12,13)            115.0497         -DE/DX =    0.0                 !
 ! A20   A(2,12,14)            115.0511         -DE/DX =    0.0                 !
 ! A21   A(13,12,14)           111.653          -DE/DX =    0.0                 !
 ! D1    D(3,1,2,5)              0.1428         -DE/DX =    0.0                 !
 ! D2    D(3,1,2,12)           177.6769         -DE/DX =    0.0                 !
 ! D3    D(11,1,2,5)          -179.5587         -DE/DX =    0.0                 !
 ! D4    D(11,1,2,12)           -2.0246         -DE/DX =    0.0                 !
 ! D5    D(2,1,3,4)            179.9513         -DE/DX =    0.0                 !
 ! D6    D(2,1,3,6)             -0.0631         -DE/DX =    0.0                 !
 ! D7    D(11,1,3,4)            -0.3481         -DE/DX =    0.0                 !
 ! D8    D(11,1,3,6)           179.6374         -DE/DX =    0.0                 !
 ! D9    D(1,2,5,7)            179.5474         -DE/DX =    0.0                 !
 ! D10   D(1,2,5,9)             -0.1378         -DE/DX =    0.0                 !
 ! D11   D(12,2,5,7)             2.0134         -DE/DX =    0.0                 !
 ! D12   D(12,2,5,9)          -177.6718         -DE/DX =    0.0                 !
 ! D13   D(1,2,12,13)          157.1982         -DE/DX =    0.0                 !
 ! D14   D(1,2,12,14)           25.283          -DE/DX =    0.0                 !
 ! D15   D(5,2,12,13)          -25.3147         -DE/DX =    0.0                 !
 ! D16   D(5,2,12,14)         -157.2299         -DE/DX =    0.0                 !
 ! D17   D(1,3,6,8)            179.9865         -DE/DX =    0.0                 !
 ! D18   D(1,3,6,9)             -0.0238         -DE/DX =    0.0                 !
 ! D19   D(4,3,6,8)             -0.028          -DE/DX =    0.0                 !
 ! D20   D(4,3,6,9)            179.9617         -DE/DX =    0.0                 !
 ! D21   D(2,5,9,6)              0.0531         -DE/DX =    0.0                 !
 ! D22   D(2,5,9,10)          -179.9419         -DE/DX =    0.0                 !
 ! D23   D(7,5,9,6)           -179.6311         -DE/DX =    0.0                 !
 ! D24   D(7,5,9,10)             0.3738         -DE/DX =    0.0                 !
 ! D25   D(3,6,9,5)              0.0287         -DE/DX =    0.0                 !
 ! D26   D(3,6,9,10)          -179.9763         -DE/DX =    0.0                 !
 ! D27   D(8,6,9,5)           -179.9815         -DE/DX =    0.0                 !
 ! D28   D(8,6,9,10)             0.0134         -DE/DX =    0.0                 !
 --------------------------------------------------------------------------------
 GradGradGradGradGradGradGradGradGradGradGradGradGradGradGradGradGradGrad

 1\1\GINC-C051\Freq\RHF\6-311+G(2df,p)\C6H7N1\RMCCULL2HS2\29-May-2015\0
 \\#N Geom=AllCheck Guess=TCheck SCRF=Check GenChk RHF/6-311+G(2df,p) F
 req\\title\\0,1\C,0.1188365965,1.1935757076,-0.0421202768\C,-0.5844358
 653,0.005734486,0.1091228568\C,1.4964351424,1.18440402,-0.1173887946\H
 ,2.0210813488,2.1152957672,-0.2352532127\C,0.1257350156,-1.1851204851,
 0.1855862172\C,2.2032390622,-0.0007381898,-0.043018292\H,-0.4035897045
 ,-2.1131871909,0.3101114905\H,3.2751946874,-0.0032742594,-0.1022463357
 \C,1.5033317422,-1.1824586944,0.1092858682\H,2.0333370146,-2.115811429
 4,0.1697258106\H,-0.4159458742,2.1253088358,-0.0958105482\N,-1.9712251
 89,0.0137031787,0.2338782386\H,-2.421316693,-0.8379850051,-0.014188015
 \H,-2.4259947307,0.8005274674,-0.170583553\\Version=EM64L-G09RevA.02\S
 tate=1-A\HF=-285.8241985\RMSD=1.212e-09\RMSF=2.405e-05\ZeroPoint=0.124
 2742\Thermal=0.1297367\Dipole=-0.4213175,-0.0378575,-0.3840999\DipoleD
 eriv=-0.4205184,0.055541,0.0053907,-0.3751338,0.0496565,0.0146146,0.03
 31171,-0.0186649,-0.2083467,1.5765292,-0.0072588,-0.1238148,-0.0061662
 ,-0.0288762,0.0100709,-0.1121756,0.0101168,0.0792727,0.2475525,-0.1541
 083,-0.0036463,0.013469,0.2477129,-0.0382707,-0.027569,-0.0247373,-0.1
 105856,0.0242947,-0.0794808,0.0129284,-0.0844246,-0.0708737,0.0247292,
 0.0140336,0.0243292,0.1360085,-0.4224353,-0.0561868,0.0162921,0.371975
 3,0.0428873,-0.0629641,-0.038363,-0.0299353,-0.1997998,-0.0653466,0.00
 054,-0.0052024,0.0007105,-0.4252778,0.0201859,-0.0032386,0.0201935,-0.
 2160002,-0.0028047,-0.0920758,0.0163064,-0.0885733,-0.0654931,0.026854
 8,0.0182448,0.0278601,0.1538525,-0.1202531,0.0009616,0.0155131,0.00103
 28,0.0611806,0.0101055,0.016293,0.0101055,0.1652511,0.2468164,0.150607
 2,-0.0328171,-0.0184721,0.2473322,-0.0309061,-0.024553,-0.0443005,-0.1
 094105,0.0233424,0.0810391,-0.0024129,0.0861226,-0.0716226,0.0155158,-
 0.0022179,0.0158165,0.1377085,-0.0038878,0.0938956,-0.0014708,0.090799
 ,-0.0667133,0.0159307,0.0010597,0.0150291,0.1561351,-1.4617075,0.01074
 16,0.1510159,0.0392278,-0.1669152,-0.03155,0.4500178,-0.0307247,-0.499
 1381,0.188965,0.043262,-0.0282208,0.0231914,0.1119595,-0.0384657,-0.16
 58349,-0.0586012,0.2693183,0.1894533,-0.0474774,-0.0198614,-0.0537587,
 0.1350429,0.0641494,-0.1588139,0.0835131,0.2457343\Polar=92.7626603,-0
 .1841949,80.654116,-2.2777047,-3.1434306,48.1909085\PolarDeriv=5.47355
 18,-2.4548624,-3.1576268,-0.3739647,0.5284009,-2.3992384,6.1665303,-0.
 3448846,0.9580631,-0.2686178,0.4544775,2.9208257,-0.6843219,0.0681239,
 0.9237518,-1.1745361,3.6537428,-0.7778211,-17.3897787,0.0071564,-3.349
 2682,0.5694492,0.0188769,-3.1671536,-0.0273724,2.4323866,-0.0761192,-0
 .6271508,-0.1471898,0.0682193,0.3624365,-0.6273172,-0.5620297,-4.09312
 78,0.1048136,0.487733,-5.7901406,1.2450479,3.6344049,0.544991,-0.22525
 01,1.813172,4.475824,-0.7414934,1.1339538,0.151865,0.7396326,3.4788764
 ,0.3988496,0.5244185,0.3843769,2.0389244,3.5021404,-1.3114547,2.536407
 6,2.8042818,3.1939181,-0.3881105,-0.4343266,0.2138032,2.4214278,3.6811
 086,7.6049439,-0.4662217,-0.8852442,0.3475488,-0.4605944,-0.4788625,-0
 .9241323,0.0149358,0.0653938,-0.0451213,5.4870325,2.3908808,-3.2918543
 ,-0.8357755,-0.3535701,-2.2102757,-6.1520043,-0.353615,-0.9648416,0.10
 63402,-0.6516435,-2.8555763,0.4928339,-0.2295503,-0.3327083,-1.1587359
 ,-3.6572495,1.206174,7.5195892,0.0264795,1.2424853,0.1024264,0.3236886
 ,4.5826555,0.0388412,0.6585269,-0.0464731,0.4786304,-0.2588285,-0.0152
 334,0.1888733,0.4772419,-0.0656651,5.5873841,-0.0311129,-0.8242839,-2.
 162255,-2.5022769,-2.9111381,0.3618505,0.451188,-0.136212,-2.2028305,-
 3.0462888,-7.4382958,0.4265546,0.9350762,-0.4623309,0.2211745,0.518478
 1,1.0383713,-0.1522229,-0.0183288,0.1280054,11.4625328,-0.0345123,0.68
 87326,-0.6435192,-0.0433358,0.2573884,-0.0482731,1.4558141,-0.0074089,
 -0.2031216,-0.0813631,0.023616,-0.7646028,-0.2035978,-0.023108,-0.6282
 354,0.0153543,0.0725808,-5.7560906,-1.1693397,3.6429082,0.7747204,-0.1
 248434,1.813643,-4.3450409,-0.7935713,-1.100863,0.3961253,-0.4278004,-
 3.5839392,1.2500245,0.0269841,-0.7807209,2.083918,-3.5372096,0.7494044
 ,2.5828558,-2.8525079,3.259937,0.151599,-0.1524235,0.1606529,-2.493307
 5,3.7390312,-7.6473398,-0.2513694,0.5352208,-0.2826166,0.007312,-0.238
 6792,0.5486891,-0.0292174,0.0007851,0.0007383,-2.2050882,2.5482662,-2.
 994061,-0.1201009,0.0991343,-0.0700689,2.2283656,-3.1346322,7.5365867,
 0.1478258,-0.4506416,0.3871558,-0.2013905,0.0556167,-0.4358995,-0.0796
 609,-0.068197,0.0813414,7.361453,0.1555671,2.8346663,1.5505951,-0.2204
 487,0.5549588,0.1378131,1.983588,0.6134857,-0.2060789,1.8831283,-0.306
 5907,1.3358968,-0.2084062,2.3536562,-0.149286,-0.3540109,0.6403182,-4.
 5357215,-2.1045039,-1.4797177,-0.6498199,-0.3538149,-0.6230392,-4.7810
 227,-2.98675,-3.526941,-0.872154,-0.6681058,-0.7808264,-0.619478,-0.97
 92554,-0.8872676,-0.9194619,-0.5163116,0.0120417,-4.584348,1.9403237,-
 1.3133863,-1.0443408,0.4867244,-0.790286,4.5810495,-2.54922,2.9612493,
 1.187373,-0.9767185,1.0608715,-1.5270135,1.2948054,-1.2373139,-1.34067
 79,0.8401904,-0.4196562\HyperPolar=250.5118677,0.0440761,-33.6420263,-
 1.4248485,-9.2441824,7.4144163,-3.9210503,43.2508009,-0.711232,-16.590
 3582\PG=C01 [X(C6H7N1)]\NImag=0\\0.77356778,-0.05088556,0.77214780,-0.
 03171676,-0.05531413,0.15733080,-0.19117161,-0.11348066,0.01564700,0.7
 7556688,-0.00516405,-0.29233392,0.02068813,-0.00199204,0.74895941,0.00
 611067,0.02388429,-0.08513917,-0.02096531,-0.05267477,0.20426447,-0.36
 424197,0.05608925,0.01244223,-0.03098850,-0.12626979,0.01462728,0.7481
 7036,-0.04780353,-0.15992881,0.01041220,-0.03830500,0.06930262,-0.0032
 3516,0.03735433,0.79499069,0.02107848,0.00558249,-0.07277049,0.0047942
 9,-0.00004884,0.00169844,-0.03590578,-0.06172967,0.17692038,-0.0098488
 3,-0.03311923,0.00402831,-0.00648993,0.00118751,0.00085497,-0.14288425
 ,-0.12336664,0.01698470,0.14430834,0.00215074,0.00451881,-0.00008865,0
 .00132572,0.00225668,0.00053449,-0.12378938,-0.29279550,0.03025240,0.1
 3533946,0.30805537,0.00054892,0.00188052,0.00504154,0.00068971,0.00062
 871,0.00892883,0.01705748,0.03017397,-0.05164009,-0.01912632,-0.033866
 78,0.03603963,0.09503158,0.03615964,-0.00749721,-0.19189240,0.00686322
 ,0.00498658,-0.08490731,0.05096535,-0.00052466,-0.00115533,0.00101842,
 -0.00008247,0.77295726,-0.03603906,-0.05793516,0.00777545,0.11501270,-
 0.29254771,0.01628162,0.04388490,-0.03231645,0.00041709,0.00099927,0.0
 0032805,-0.00024303,0.04387352,0.77119667,-0.00057258,0.00501672,0.008
 34683,-0.00623037,0.01947329,-0.08428561,-0.00094936,0.00023653,-0.004
 31233,-0.00010844,-0.00019011,-0.00104480,-0.04077589,-0.06350693,0.15
 890471,-0.02964831,0.02841334,-0.00049059,0.01031769,0.00019230,-0.002
 23919,-0.21137921,0.13762610,-0.00573413,0.01513745,-0.01927062,0.0013
 4420,-0.02882067,-0.02850235,0.00493620,0.83177867,0.11455888,0.058799
 98,-0.00969573,0.00035233,-0.12928487,0.01186935,0.03269660,-0.3005126
 4,0.01942763,0.01602563,-0.01897526,0.00145346,-0.11468612,0.05922304,
 0.00019529,-0.00316344,0.70495136,-0.00893061,-0.00633381,0.01043977,-
 0.00060339,0.01188038,-0.00636648,0.00445207,0.01387324,-0.07735797,-0
 .00204051,0.00341716,0.00546059,0.01301367,-0.00316950,0.00918620,-0.0
 3737300,-0.05294096,0.15831490,-0.00093208,0.00404386,0.00011932,0.012
 21997,0.01555367,-0.00194369,-0.00132157,0.00105667,-0.00008775,0.0000
 4644,-0.00008931,-0.00004821,-0.14093773,-0.12217155,0.01779396,-0.006
 44500,0.00141306,0.00071009,0.14465759,0.00458606,-0.00379174,0.000753
 70,-0.02093518,-0.02097457,0.00383603,0.00138266,0.00005889,-0.0001488
 7,-0.00008868,-0.00003398,-0.00008243,-0.12149671,-0.28938605,0.032151
 07,0.00050242,0.00234538,0.00060497,0.13438934,0.30523811,0.00001945,0
 .00073672,0.00667247,0.00180180,0.00143609,0.00508970,-0.00010765,-0.0
 0009154,-0.00085271,-0.00004189,-0.00007657,-0.00088571,0.01820991,0.0
 3268238,-0.04516629,0.00067518,0.00051875,0.00813793,-0.01995075,-0.03
 600661,0.03271476,0.00072730,0.00358644,0.00005213,0.00072288,0.000001
 78,-0.00006613,-0.01241508,-0.00372573,0.00117951,0.00092944,0.0004959
 6,-0.00036072,0.00076302,-0.00347741,0.00072788,-0.36832728,0.00087065
 ,0.01815349,-0.00077911,0.00014919,0.00004185,0.39041246,0.00259277,-0
 .00505894,0.00108586,0.00000080,-0.00202367,0.00012058,0.03258050,0.00
 686079,-0.00219306,-0.00089242,0.00113980,-0.00051359,-0.00248616,-0.0
 0502933,0.00136162,0.00086966,-0.07136198,0.00299427,-0.00161512,0.000
 04413,0.00010807,-0.00096560,0.06682717,0.00013462,0.00102631,0.007635
 21,-0.00007625,0.00012003,-0.00077342,-0.00227519,-0.00018014,0.002866
 42,-0.00023061,-0.00059198,-0.00468396,0.00061894,0.00142049,0.0075723
 7,0.01814200,0.00299153,-0.04094612,0.00020645,0.00003426,0.00037008,-
 0.01995085,-0.00357685,0.03043440,-0.08435841,-0.04356964,0.00741579,-
 0.03194626,0.12617528,-0.00952415,0.10301961,-0.04348187,-0.00094536,-
 0.00082172,0.00456819,0.00007669,-0.36413920,-0.05388493,0.02296246,-0
 .21042895,-0.03078912,0.01048882,-0.01044716,0.00213942,0.00039835,-0.
 01224732,-0.03253114,0.00396404,0.74858937,-0.05043976,-0.03196840,0.0
 0507449,0.03794114,0.06842794,-0.00954880,0.04353007,-0.07348643,0.005
 40669,0.00428522,-0.00424179,0.00098116,0.04976077,-0.15978448,0.00651
 110,-0.13574165,-0.29972872,0.02905663,-0.03411619,0.00457635,0.001577
 29,0.00376961,0.00699468,-0.00062751,-0.04372773,0.79533926,0.00916880
 ,0.00490162,-0.00520887,-0.00246555,-0.01274433,0.00352575,-0.00928965
 ,0.01003786,0.00658985,0.00010376,0.00095329,0.00826575,0.01169793,0.0
 1132359,-0.07294731,0.02043599,0.02350068,-0.07920168,0.00423098,-0.00
 026149,0.00302217,0.00045132,0.00138323,0.00256624,-0.02816775,-0.0579
 7939,0.17619676,-0.00114358,-0.00101069,0.00008378,-0.00647644,-0.0010
 5331,0.00106927,-0.00077063,-0.00416727,0.00091220,0.00050220,-0.00090
 975,0.00004531,-0.01003012,0.03320006,-0.00231880,0.01511843,-0.015923
 76,0.00102361,0.00124644,-0.00062174,-0.00027680,0.00092743,0.00083094
 ,-0.00039616,-0.14431606,0.12521769,-0.00675535,0.14587907,-0.00102404
 ,0.00034748,-0.00008003,-0.00122070,0.00226706,0.00075558,-0.00445033,
 -0.00420088,0.00145283,0.00091170,-0.00121308,0.00004589,-0.00208976,0
 .00438253,0.00023749,0.01937179,-0.01898431,0.00130263,0.00053922,0.00
 095992,-0.00062086,-0.00055686,0.00113773,-0.00053380,0.12564908,-0.29
 395050,0.01670475,-0.13746217,0.30932291,0.00011279,-0.00002807,-0.001
 07597,0.00093246,0.00066092,0.00890266,0.00094029,0.00142788,0.0081764
 2,-0.00012960,0.00014879,-0.00020648,0.00096066,-0.00172671,0.00535650
 ,-0.00236180,0.00327325,0.00548996,-0.00043354,-0.00058883,-0.00495674
 ,-0.00025986,-0.00061361,-0.00468129,-0.00675544,0.01677156,-0.0490528
 4,0.00692595,-0.01909079,0.03320165,-0.14237931,0.12421085,-0.00576471
 ,0.01218497,-0.01544559,0.00103338,-0.01063246,0.03421075,-0.00231517,
 0.00124635,-0.00061052,-0.00032336,-0.00088230,-0.00393109,0.00088098,
 -0.00643374,-0.00130302,0.00097053,0.00063004,-0.00086705,0.00005464,-
 0.00078766,0.00162028,-0.00010314,-0.00130760,-0.00106192,0.00011469,0
 .00004547,0.00007900,-0.00006426,0.14624733,0.12362331,-0.29122926,0.0
 1561374,0.02108955,-0.02098688,0.00120748,-0.00211005,0.00446114,0.000
 00703,0.00055941,0.00097168,-0.00056008,-0.00448222,-0.00374205,0.0012
 5767,-0.00041550,0.00233552,0.00052173,0.00087280,-0.00127761,0.000068
 89,-0.00014322,0.00003794,0.00003125,-0.00138631,0.00005678,-0.0000282
 0,0.00007950,-0.00003411,-0.00008246,-0.13668518,0.30725288,-0.0052354
 9,0.01509405,-0.04187889,-0.00222885,0.00360401,0.00513355,0.00082210,
 -0.00183889,0.00332489,-0.00038965,-0.00052605,-0.00496988,0.00088660,
 0.00127126,0.00657064,0.00076384,0.00060919,0.00813885,-0.00011202,0.0
 0014406,-0.00017278,0.00007038,-0.00004275,0.00038482,0.00015510,-0.00
 008607,-0.00086455,-0.00005809,-0.00008812,-0.00088462,0.00596744,-0.0
 1728520,0.02910866,-0.04141873,-0.01494560,0.00505338,-0.31910344,0.00
 299473,0.03671804,0.00860661,0.00143319,-0.00094329,-0.00055640,-0.000
 29766,0.00019560,-0.04181591,0.01538170,0.00218395,-0.01127116,-0.0000
 2434,0.00041439,0.00206054,-0.00078599,0.00014191,-0.00001585,0.000006
 58,0.00008486,0.00866644,-0.00146764,-0.00065853,-0.00056860,0.0003261
 5,0.00013544,0.00205790,0.00079850,-0.00000290,0.70824630,-0.05410513,
 0.00406628,0.00496768,-0.00249483,-0.14067949,0.00856960,0.00835490,-0
 .01200658,0.00246699,-0.00183417,-0.00001551,0.00006064,0.05480877,0.0
 0250754,-0.00373045,0.00032882,0.01074281,-0.00117931,0.00020122,0.002
 31702,0.00028576,-0.00000746,0.00046592,-0.00010504,-0.00880537,-0.011
 83598,0.00108411,0.00179859,-0.00003904,-0.00008078,-0.00024900,0.0022
 2077,-0.00145322,0.01449813,0.87421091,0.01023151,0.00647669,0.0085905
 4,-0.02088382,0.00840443,-0.05288513,-0.00380502,-0.00011274,0.0066043
 6,0.00000271,0.00010444,-0.00015742,-0.00015895,-0.00523139,0.01055333
 ,0.00411470,-0.00117039,-0.00147078,-0.00025419,-0.00094346,-0.0038272
 9,-0.00006326,-0.00010572,-0.00062648,-0.00216874,0.00365408,0.0063730
 4,-0.00034420,-0.00012708,-0.00012114,-0.00021348,-0.00022705,-0.00372
 938,0.15702574,-0.06807115,0.16294773,-0.00708982,0.00298513,-0.000108
 29,-0.01635627,-0.04119559,-0.01154588,0.00051342,-0.00223052,0.000780
 69,-0.00050577,0.00005422,0.00003281,0.00289450,-0.00134517,0.00100901
 ,0.00019590,0.00096568,-0.00023340,-0.00020215,0.00153333,-0.00076518,
 0.00004466,0.00010778,-0.00006976,-0.00076181,-0.00029196,0.00079106,0
 .00009172,-0.00002291,-0.00004579,0.00020407,-0.00014977,-0.00017525,-
 0.15659502,-0.15182520,-0.05752121,0.16535085,0.00146825,0.00117065,-0
 .00065088,-0.00009018,0.00463567,0.00028303,-0.00012510,-0.00012734,0.
 00013061,0.00005532,0.00003731,-0.00001324,0.00334147,0.00143997,0.000
 27856,0.00072251,0.00032865,-0.00004395,0.00000322,-0.00042748,-0.0006
 2820,-0.00004250,-0.00003028,-0.00017367,-0.00090878,-0.00021957,0.000
 95681,0.00005503,-0.00003676,-0.00004525,0.00007956,0.00031453,-0.0001
 8494,-0.16055049,-0.39211548,-0.08338078,0.17273027,0.40805681,-0.0003
 0487,-0.00198121,0.00196668,0.01491081,0.00800524,-0.00498971,0.002250
 94,0.00052302,0.00133862,0.00012890,-0.00004795,-0.00016199,-0.0013062
 1,0.00066996,-0.00018365,-0.00118950,0.00103340,-0.00001116,-0.0002361
 4,0.00050034,0.00043918,0.00001627,0.00002707,-0.00004575,-0.00008622,
 -0.00057688,-0.00067192,-0.00004760,0.00003208,0.00001836,-0.00000917,
 -0.00018146,-0.00054699,-0.08527405,-0.12179029,-0.04083599,0.06036238
 ,0.09620970,0.04186918,0.00290599,0.00152288,0.00073562,-0.01658753,0.
 03815189,-0.01911585,-0.00076902,0.00043418,0.00072627,0.00009201,0.00
 001452,-0.00004964,-0.00706540,-0.00300060,0.00046099,0.00020617,-0.00
 099302,-0.00004575,0.00020377,0.00011291,-0.00020083,0.00004510,-0.000
 11886,-0.00004895,0.00049907,0.00234237,0.00034230,-0.00050532,-0.0000
 5018,0.00004270,-0.00019306,-0.00165081,-0.00046321,-0.15829269,0.1393
 3073,-0.08596179,0.01221573,-0.01673858,0.01078445,0.16724517,-0.00351
 888,0.00119523,-0.00054184,0.00279634,0.00298171,-0.00188331,0.0008714
 2,-0.00029952,-0.00102333,-0.00006236,-0.00003258,0.00005480,-0.001550
 18,0.00166342,0.00070815,-0.00093339,0.00012102,0.00001652,-0.00008088
 ,0.00035164,0.00000984,0.00004517,-0.00000396,0.00016513,0.00055291,-0
 .00017915,0.00016747,-0.00003311,0.00004105,-0.00002591,-0.00004706,-0
 .00038133,0.00078267,0.14263274,-0.33983918,0.14073012,0.01868471,-0.0
 2302667,0.01757697,-0.15935743,0.35740830,-0.00064495,-0.00094221,0.00
 004957,0.01467746,-0.00943329,-0.00310388,-0.00025974,0.00050345,-0.00
 058579,-0.00003633,-0.00002249,0.00001398,-0.00002892,0.00203573,0.001
 44940,-0.00102390,-0.00106545,0.00018600,0.00000549,0.00000728,-0.0005
 8477,0.00000799,-0.00003512,-0.00007251,0.00218642,-0.00021436,0.00140
 761,0.00013688,0.00000944,-0.00016647,-0.00022836,-0.00034336,0.000385
 68,-0.11507455,0.17897547,-0.09141539,0.00748882,-0.01273780,0.0018151
 6,0.09279371,-0.15673728,0.09062143\\-0.00006408,0.00001905,0.00000775
 ,-0.00001938,-0.00002182,0.00003277,0.00005512,0.00000604,-0.00002673,
 0.00000604,-0.00000150,0.00000869,-0.00007334,-0.00000124,-0.00001792,
 0.00000520,-0.00002268,0.00000571,0.00000154,0.00000171,0.00000148,-0.
 00000105,0.00000160,0.00000023,0.00007848,0.00001371,0.00001210,0.0000
 0165,-0.00000052,-0.00000699,-0.00000407,-0.00000392,-0.00000776,0.000
 02837,0.00000651,-0.00000567,-0.00000453,0.00000144,-0.00000324,-0.000
 00996,0.00000162,-0.00000042\\\@


 THE TRULY SUCCESSFUL PERFORMANCE OF RESEARCHES IN
 INORGANIC CHEMISTRY IS POSSIBLE ONLY TO ONE WHO IS NOT
 ONLY A THEORETICAL CHEMIST, BUT ALSO AN ACCOMPLISHED
 ANALYST AND, MOREOVER, NOT MERELY A PRACTICALLY TRAINED,
 MECHANICAL WORKER, BUT A THINKING CREATIVE ARTIST.
   --  CLEMENS WINKLER, BER. 33, 1697(1900)
 Job cpu time:  0 days  0 hours 40 minutes 21.9 seconds.
 File lengths (MBytes):  RWF=     88 Int=      0 D2E=      0 Chk=      6 Scr=      1
 Normal termination of Gaussian 09 at Fri May 29 11:09:15 2015.
