
                                 *****************
                                 * O   R   C   A *
                                 *****************

                                            #,                                       
                                            ###                                      
                                            ####                                     
                                            #####                                    
                                            ######                                   
                                           ########,                                 
                                     ,,################,,,,,                         
                               ,,#################################,,                 
                          ,,##########################################,,             
                       ,#########################################, ''#####,          
                    ,#############################################,,   '####,        
                  ,##################################################,,,,####,       
                ,###########''''           ''''###############################       
              ,#####''   ,,,,##########,,,,          '''####'''          '####       
            ,##' ,,,,###########################,,,                        '##       
           ' ,,###''''                  '''############,,,                           
         ,,##''                                '''############,,,,        ,,,,,,###''
      ,#''                                            '''#######################'''  
     '                                                          ''''####''''         
             ,#######,   #######,   ,#######,      ##                                
            ,#'     '#,  ##    ##  ,#'     '#,    #''#        ######   ,####,        
            ##       ##  ##   ,#'  ##            #'  '#       #        #'  '#        
            ##       ##  #######   ##           ,######,      #####,   #    #        
            '#,     ,#'  ##    ##  '#,     ,#' ,#      #,         ##   #,  ,#        
             '#######'   ##     ##  '#######'  #'      '#     #####' # '####'        



                  #######################################################
                  #                        -***-                        #
                  #          Department of theory and spectroscopy      #
                  #    Directorship and core code : Frank Neese         #
                  #        Max Planck Institute fuer Kohlenforschung    #
                  #                Kaiser Wilhelm Platz 1               #
                  #                 D-45470 Muelheim/Ruhr               #
                  #                      Germany                        #
                  #                                                     #
                  #                  All rights reserved                #
                  #                        -***-                        #
                  #######################################################


                         Program Version 5.0.1 -  RELEASE  -


 With contributions from (in alphabetic order):
   Daniel Aravena         : Magnetic Suceptibility
   Michael Atanasov       : Ab Initio Ligand Field Theory (pilot matlab implementation)
   Alexander A. Auer      : GIAO ZORA, VPT2 properties, NMR spectrum
   Ute Becker             : Parallelization
   Giovanni Bistoni       : ED, misc. LED, open-shell LED, HFLD
   Martin Brehm           : Molecular dynamics
   Dmytro Bykov           : SCF Hessian
   Vijay G. Chilkuri      : MRCI spin determinant printing, contributions to CSF-ICE
   Dipayan Datta          : RHF DLPNO-CCSD density
   Achintya Kumar Dutta   : EOM-CC, STEOM-CC
   Dmitry Ganyushin       : Spin-Orbit,Spin-Spin,Magnetic field MRCI
   Miquel Garcia          : C-PCM and meta-GGA Hessian, CC/C-PCM, Gaussian charge scheme
   Yang Guo               : DLPNO-NEVPT2, F12-NEVPT2, CIM, IAO-localization
   Andreas Hansen         : Spin unrestricted coupled pair/coupled cluster methods
   Benjamin Helmich-Paris : MC-RPA, TRAH-SCF, COSX integrals
   Lee Huntington         : MR-EOM, pCC
   Robert Izsak           : Overlap fitted RIJCOSX, COSX-SCS-MP3, EOM
   Marcus Kettner         : VPT2
   Christian Kollmar      : KDIIS, OOCD, Brueckner-CCSD(T), CCSD density, CASPT2, CASPT2-K
   Simone Kossmann        : Meta GGA functionals, TD-DFT gradient, OOMP2, MP2 Hessian
   Martin Krupicka        : Initial AUTO-CI
   Lucas Lang             : DCDCAS
   Marvin Lechner         : AUTO-CI (C++ implementation), FIC-MRCC
   Dagmar Lenk            : GEPOL surface, SMD
   Dimitrios Liakos       : Extrapolation schemes; Compound Job, initial MDCI parallelization
   Dimitrios Manganas     : Further ROCIS development; embedding schemes
   Dimitrios Pantazis     : SARC Basis sets
   Anastasios Papadopoulos: AUTO-CI, single reference methods and gradients
   Taras Petrenko         : DFT Hessian,TD-DFT gradient, ASA, ECA, R-Raman, ABS, FL, XAS/XES, NRVS
   Peter Pinski           : DLPNO-MP2, DLPNO-MP2 Gradient
   Christoph Reimann      : Effective Core Potentials
   Marius Retegan         : Local ZFS, SOC
   Christoph Riplinger    : Optimizer, TS searches, QM/MM, DLPNO-CCSD(T), (RO)-DLPNO pert. Triples
   Tobias Risthaus        : Range-separated hybrids, TD-DFT gradient, RPA, STAB
   Michael Roemelt        : Original ROCIS implementation
   Masaaki Saitow         : Open-shell DLPNO-CCSD energy and density
   Barbara Sandhoefer     : DKH picture change effects
   Avijit Sen             : IP-ROCIS
   Kantharuban Sivalingam : CASSCF convergence, NEVPT2, FIC-MRCI
   Bernardo de Souza      : ESD, SOC TD-DFT
   Georgi Stoychev        : AutoAux, RI-MP2 NMR, DLPNO-MP2 response
   Willem Van den Heuvel  : Paramagnetic NMR
   Boris Wezisla          : Elementary symmetry handling
   Frank Wennmohs         : Technical directorship


 We gratefully acknowledge several colleagues who have allowed us to
 interface, adapt or use parts of their codes:
   Stefan Grimme, W. Hujo, H. Kruse, P. Pracht,  : VdW corrections, initial TS optimization,
                  C. Bannwarth, S. Ehlert          DFT functionals, gCP, sTDA/sTD-DF
   Ed Valeev, F. Pavosevic, A. Kumar             : LibInt (2-el integral package), F12 methods
   Garnet Chan, S. Sharma, J. Yang, R. Olivares  : DMRG
   Ulf Ekstrom                                   : XCFun DFT Library
   Mihaly Kallay                                 : mrcc  (arbitrary order and MRCC methods)
   Jiri Pittner, Ondrej Demel                    : Mk-CCSD
   Frank Weinhold                                : gennbo (NPA and NBO analysis)
   Christopher J. Cramer and Donald G. Truhlar   : smd solvation model
   Lars Goerigk                                  : TD-DFT with DH, B97 family of functionals
   V. Asgeirsson, H. Jonsson                     : NEB implementation
   FAccTs GmbH                                   : IRC, NEB, NEB-TS, DLPNO-Multilevel, CI-OPT
                                                   MM, QMMM, 2- and 3-layer-ONIOM, Crystal-QMMM,
                                                   LR-CPCM, SF, NACMEs, symmetry and pop. for TD-DFT,
                                                   nearIR, NL-DFT gradient (VV10), updates on ESD,
                                                   ML-optimized integration grids
   S Lehtola, MJT Oliveira, MAL Marques          : LibXC Library
   Liviu Ungur et al                             : ANISO software


 Your calculation uses the libint2 library for the computation of 2-el integrals
 For citations please refer to: http://libint.valeyev.net

 Your ORCA version has been built with support for libXC version: 5.1.0
 For citations please refer to: https://tddft.org/programs/libxc/

 This ORCA versions uses:
   CBLAS   interface :  Fast vector & matrix operations
   LAPACKE interface :  Fast linear algebra routines
   SCALAPACK package :  Parallel linear algebra routines
   Shared memory     :  Shared parallel matrices
   BLAS/LAPACK       :  OpenBLAS 0.3.15  USE64BITINT DYNAMIC_ARCH NO_AFFINITY Haswell SINGLE_THREADED
        Core in use  :  Haswell
   Copyright (c) 2011-2014, The OpenBLAS Project


Your calculation utilizes the geometrical counterpoise correction gCP
Please cite in your paper:
H.Kruse, S. Grimme J.Chem.Phys., 136, (2012), 154101 
   

XCFun DFT library Copyright 2009-2010 Ulf Ekstrom and contributors.
See http://admol.org/xcfun for more information.
This is free software; see the source code for copying conditions.
There is ABSOLUTELY NO WARRANTY; not even for MERCHANTABILITY or FITNESS FOR A PARTICULAR PURPOSE.
For details see the documentation.
Scientific users of this library should cite U. Ekstrom, L. Visscher, R. Bast, A. J. Thorvaldsen and K. Ruud;
J.Chem.Theor.Comp. 2010, DOI: 10.1021/ct100117s
XCFun Version 0.99 

================================================================================

----- Orbital basis set information -----
Your calculation utilizes the basis: def2-SVP
   F. Weigend and R. Ahlrichs, Phys. Chem. Chem. Phys. 7, 3297 (2005).

----- AuxJ basis set information -----
Your calculation utilizes the auxiliary basis: def2/J
   F. Weigend, Phys. Chem. Chem. Phys. 8, 1057 (2006).

================================================================================
                                        WARNINGS
                       Please study these warnings very carefully!
================================================================================


WARNING: Geometry Optimization
  ===> : Switching off AutoStart
         For restart on a previous wavefunction, please use MOREAD

WARNING: Minnesota functionals are quite sensitive to the integration grid.
         see SE Wheeler, KN Houk, JCTC 2010, 6, 395,
             N Mardirossian, M Head-Gordon, JCTC 2016, 12, 4303.
         DEFGRID3 seems to be a minimum grid for reliable results with these functionals!
  ===> : Please increase the integration grid!


INFO   : the flag for use of the SHARK integral package has been found!

================================================================================
                                       INPUT FILE
================================================================================
NAME = styrene-d3-631GD.inp
|  1> #memory request in MB
|  2> %maxcore 1000
|  3> 
|  4> #method, basis set, type of calculation
|  5> #(optimization followed by frequency calculation)
|  6> ! M062X GCP(DFT/631GD) TIGHTSCF Opt Freq PAL2 Slowconv
|  7> %geom
|  8> maxiter 500
|  9> Calc_Hess true
| 10> Recalc_Hess 2
| 11> end
| 12> #xyz for cartesian coordinates, charge, spin multiplicity
| 13> *xyz 0 1
| 14> #atomic symbol, coordinates
| 15> #16
| 16> #symmetry c1
| 17> C       -0.052191000     -0.404117000     -0.144131000
| 18> C        0.255715000      0.944147000     -0.354792000
| 19> C        0.983319000     -1.279211000      0.192722000
| 20> H       -0.533670000      1.648873000     -0.582973000
| 21> H        0.754334000     -2.323101000      0.371575000
| 22> C        1.559947000      1.393625000     -0.247656000
| 23> C        2.290217000     -0.830072000      0.297111000
| 24> H        1.781569000      2.440591000     -0.409151000
| 25> H        3.080302000     -1.522817000      0.556061000
| 26> C        2.582653000      0.508197000      0.074941000
| 27> H        3.601175000      0.863997000      0.159622000
| 28> C       -1.412940000     -0.923168000     -0.249544000
| 29> H       -1.562585000     -1.928156000      0.131332000 M 2
| 30> C       -2.480072000     -0.256781000     -0.733743000
| 31> H       -2.391891000      0.712261000     -1.204048000 M 2
| 32> H       -3.444683000     -0.740007000     -0.803302000 M 2
| 33> *
| 34> 
| 35> 
| 36> 
| 37> 
| 38>                          ****END OF INPUT****
================================================================================

                       *****************************
                       * Geometry Optimization Run *
                       *****************************

Geometry optimization settings:
Update method            Update   .... BFGS
Choice of coordinates    CoordSys .... Z-matrix Internals
Initial Hessian          InHess   .... Almoef's Model

Convergence Tolerances:
Energy Change            TolE     ....  5.0000e-06 Eh
Max. Gradient            TolMAXG  ....  3.0000e-04 Eh/bohr
RMS Gradient             TolRMSG  ....  1.0000e-04 Eh/bohr
Max. Displacement        TolMAXD  ....  4.0000e-03 bohr
RMS Displacement         TolRMSD  ....  2.0000e-03 bohr
Strict Convergence                ....  False
------------------------------------------------------------------------------
                        ORCA OPTIMIZATION COORDINATE SETUP
------------------------------------------------------------------------------

The optimization will be done in new redundant internal coordinates
Making redundant internal coordinates   ...  (new redundants) done
Evaluating the initial hessian          ...  (Is done on the fly) done
Evaluating the coordinates              ...  done
Calculating the B-matrix                .... done
Calculating the G-matrix                .... done
Diagonalizing the G-matrix              .... done
Small eigenvalue found = 2.671e-02
The first mode is                       ....   30
The number of degrees of freedom        ....   42

    -----------------------------------------------------------------
                    Redundant Internal Coordinates


    -----------------------------------------------------------------
         Definition                    Initial Value    d2E/dq (diagonal element)
    -----------------------------------------------------------------
      1. B(C   1,C   0)                  1.3989         0.000000   
      2. B(C   2,C   0)                  1.3970         0.000000   
      3. B(H   3,C   1)                  1.0825         0.000000   
      4. B(H   4,C   2)                  1.0836         0.000000   
      5. B(C   5,C   1)                  1.3837         0.000000   
      6. B(C   6,C   2)                  1.3859         0.000000   
      7. B(H   7,C   5)                  1.0823         0.000000   
      8. B(H   8,C   6)                  1.0822         0.000000   
      9. B(C   9,C   6)                  1.3877         0.000000   
     10. B(C   9,C   5)                  1.3907         0.000000   
     11. B(H  10,C   9)                  1.0822         0.000000   
     12. B(C  11,C   0)                  1.4602         0.000000   
     13. B(H  12,C  11)                  1.0851         0.000000   
     14. B(C  13,C  11)                  1.3481         0.000000   
     15. B(H  14,C  13)                  1.0807         0.000000   
     16. B(H  15,C  13)                  1.0811         0.000000   
     17. A(C   1,C   0,C   2)          118.4828         0.000000   
     18. A(C   1,C   0,C  11)          122.4684         0.000000   
     19. A(C   2,C   0,C  11)          119.0456         0.000000   
     20. A(H   3,C   1,C   5)          119.4850         0.000000   
     21. A(C   0,C   1,H   3)          119.9122         0.000000   
     22. A(C   0,C   1,C   5)          120.5897         0.000000   
     23. A(H   4,C   2,C   6)          119.9384         0.000000   
     24. A(C   0,C   2,H   4)          119.1197         0.000000   
     25. A(C   0,C   2,C   6)          120.9417         0.000000   
     26. A(H   7,C   5,C   9)          119.9958         0.000000   
     27. A(C   1,C   5,C   9)          120.2862         0.000000   
     28. A(C   1,C   5,H   7)          119.7165         0.000000   
     29. A(H   8,C   6,C   9)          120.1164         0.000000   
     30. A(C   2,C   6,C   9)          119.9467         0.000000   
     31. A(C   2,C   6,H   8)          119.9363         0.000000   
     32. A(C   5,C   9,H  10)          120.0632         0.000000   
     33. A(C   5,C   9,C   6)          119.7461         0.000000   
     34. A(C   6,C   9,H  10)          120.1890         0.000000   
     35. A(H  12,C  11,C  13)          118.3419         0.000000   
     36. A(C   0,C  11,C  13)          126.0083         0.000000   
     37. A(C   0,C  11,H  12)          115.6198         0.000000   
     38. A(H  14,C  13,H  15)          116.4600         0.000000   
     39. A(C  11,C  13,H  15)          120.5609         0.000000   
     40. A(C  11,C  13,H  14)          122.3405         0.000000   
     41. D(H   3,C   1,C   0,C  11)      1.4610         0.000000   
     42. D(C   5,C   1,C   0,C   2)      0.8063         0.000000   
     43. D(H   3,C   1,C   0,C   2)   -177.8752         0.000000   
     44. D(C   5,C   1,C   0,C  11)   -179.8575         0.000000   
     45. D(H   4,C   2,C   0,C   1)    179.1651         0.000000   
     46. D(C   6,C   2,C   0,C  11)    179.6810         0.000000   
     47. D(H   4,C   2,C   0,C  11)     -0.1942         0.000000   
     48. D(C   6,C   2,C   0,C   1)     -0.9597         0.000000   
     49. D(C   9,C   5,C   1,H   3)    178.5274         0.000000   
     50. D(C   9,C   5,C   1,C   0)     -0.1597         0.000000   
     51. D(H   7,C   5,C   1,H   3)     -1.0362         0.000000   
     52. D(H   7,C   5,C   1,C   0)   -179.7233         0.000000   
     53. D(C   9,C   6,C   2,C   0)      0.4624         0.000000   
     54. D(H   8,C   6,C   2,H   4)      0.0659         0.000000   
     55. D(H   8,C   6,C   2,C   0)   -179.8083         0.000000   
     56. D(C   9,C   6,C   2,H   4)   -179.6634         0.000000   
     57. D(H  10,C   9,C   6,H   8)      0.0054         0.000000   
     58. D(C   5,C   9,C   6,H   8)   -179.5239         0.000000   
     59. D(C   5,C   9,C   6,C   2)      0.2049         0.000000   
     60. D(H  10,C   9,C   5,H   7)     -0.3225         0.000000   
     61. D(H  10,C   9,C   5,C   1)   -179.8849         0.000000   
     62. D(H  10,C   9,C   6,C   2)    179.7342         0.000000   
     63. D(C   6,C   9,C   5,H   7)    179.2074         0.000000   
     64. D(C   6,C   9,C   5,C   1)     -0.3549         0.000000   
     65. D(C  13,C  11,C   0,C   2)   -170.5560         0.000000   
     66. D(C  13,C  11,C   0,C   1)     10.1114         0.000000   
     67. D(H  12,C  11,C   0,C   2)     11.4800         0.000000   
     68. D(H  12,C  11,C   0,C   1)   -167.8526         0.000000   
     69. D(H  15,C  13,C  11,C   0)    177.8566         0.000000   
     70. D(H  14,C  13,C  11,H  12)   -174.7419         0.000000   
     71. D(H  14,C  13,C  11,C   0)      7.3439         0.000000   
     72. D(H  15,C  13,C  11,H  12)     -4.2292         0.000000   
    -----------------------------------------------------------------

Number of atoms                         .... 16
Number of degrees of freedom            .... 72

         *************************************************************
         *                GEOMETRY OPTIMIZATION CYCLE   1            *
         *************************************************************
---------------------------------
CARTESIAN COORDINATES (ANGSTROEM)
---------------------------------
  C     -0.052191   -0.404117   -0.144131
  C      0.255715    0.944147   -0.354792
  C      0.983319   -1.279211    0.192722
  H     -0.533670    1.648873   -0.582973
  H      0.754334   -2.323101    0.371575
  C      1.559947    1.393625   -0.247656
  C      2.290217   -0.830072    0.297111
  H      1.781569    2.440591   -0.409151
  H      3.080302   -1.522817    0.556061
  C      2.582653    0.508197    0.074941
  H      3.601175    0.863997    0.159622
  C     -1.412940   -0.923168   -0.249544
  H     -1.562585   -1.928156    0.131332
  C     -2.480072   -0.256781   -0.733743
  H     -2.391891    0.712261   -1.204048
  H     -3.444683   -0.740007   -0.803302

----------------------------
CARTESIAN COORDINATES (A.U.)
----------------------------
  NO LB      ZA    FRAG     MASS         X           Y           Z
   0 C     6.0000    0    12.011   -0.098627   -0.763670   -0.272368
   1 C     6.0000    0    12.011    0.483231    1.784179   -0.670460
   2 C     6.0000    0    12.011    1.858204   -2.417358    0.364192
   3 H     1.0000    0     1.008   -1.008490    3.115918   -1.101659
   4 H     1.0000    0     1.008    1.425485   -4.390025    0.702175
   5 C     6.0000    0    12.011    2.947873    2.633570   -0.468002
   6 C     6.0000    0    12.011    4.327883   -1.568609    0.561458
   7 H     1.0000    0     1.008    3.366677    4.612049   -0.773183
   8 H     1.0000    0     1.008    5.820927   -2.877707    1.050803
   9 C     6.0000    0    12.011    4.880507    0.960353    0.141618
  10 H     1.0000    0     1.008    6.805235    1.632718    0.301642
  11 C     6.0000    0    12.011   -2.670070   -1.744535   -0.471570
  12 H     1.0000    0     2.000   -2.952858   -3.643687    0.248182
  13 C     6.0000    0    12.011   -4.686657   -0.485246   -1.386573
  14 H     1.0000    0     2.000   -4.520019    1.345978   -2.275321
  15 H     1.0000    0     2.000   -6.509507   -1.398411   -1.518021

--------------------------------
INTERNAL COORDINATES (ANGSTROEM)
--------------------------------
 C      0   0   0     0.000000000000     0.00000000     0.00000000
 C      1   0   0     1.398928152356     0.00000000     0.00000000
 C      1   2   0     1.396975451662   118.48277213     0.00000000
 H      2   1   3     1.082512809191   119.91224018   182.12482900
 H      3   1   2     1.083572267057   119.11972587   179.16511792
 C      2   1   3     1.383665315314   120.58972862     0.80632657
 C      3   1   2     1.385859042993   120.94171822   359.04033984
 H      6   2   1     1.082282195670   119.71653262   180.27670977
 H      7   3   1     1.082213031131   119.93631705   180.19170856
 C      7   3   1     1.387747181354   119.94668450     0.46243287
 H     10   7   3     1.082197568028   120.18902305   179.73422388
 C      1   2   3     1.460193029079   122.46839381   179.33612760
 H     12   1   2     1.085108765767   115.61980465   192.14741899
 C     12   1   2     1.348069364237   126.00827388    10.11142976
 H     14  12   1     1.080742836918   122.34052318     7.34393681
 H     14  12   1     1.081119883675   120.56085029   177.85664186

---------------------------
INTERNAL COORDINATES (A.U.)
---------------------------
 C      0   0   0     0.000000000000     0.00000000     0.00000000
 C      1   0   0     2.643591088985     0.00000000     0.00000000
 C      1   2   0     2.639901019451   118.48277213     0.00000000
 H      2   1   3     2.045652745832   119.91224018   182.12482900
 H      3   1   2     2.047654831049   119.11972587   179.16511792
 C      2   1   3     2.614748506950   120.58972862     0.80632657
 C      3   1   2     2.618894051475   120.94171822   359.04033984
 H      6   2   1     2.045216949436   119.71653262   180.27670977
 H      7   3   1     2.045086247399   119.93631705   180.19170856
 C      7   3   1     2.622462115881   119.94668450     0.46243287
 H     10   7   3     2.045057026368   120.18902305   179.73422388
 C      1   2   3     2.759364927620   122.46839381   179.33612760
 H     12   1   2     2.050558392817   115.61980465   192.14741899
 C     12   1   2     2.547481907937   126.00827388    10.11142976
 H     14  12   1     2.042307982973   122.34052318     7.34393681
 H     14  12   1     2.043020498083   120.56085029   177.85664186

---------------------
BASIS SET INFORMATION
---------------------
There are 2 groups of distinct atoms

 Group   1 Type C   : 7s4p1d contracted to 3s2p1d pattern {511/31/1}
 Group   2 Type H   : 4s1p contracted to 2s1p pattern {31/1}

Atom   0C    basis set group =>   1
Atom   1C    basis set group =>   1
Atom   2C    basis set group =>   1
Atom   3H    basis set group =>   2
Atom   4H    basis set group =>   2
Atom   5C    basis set group =>   1
Atom   6C    basis set group =>   1
Atom   7H    basis set group =>   2
Atom   8H    basis set group =>   2
Atom   9C    basis set group =>   1
Atom  10H    basis set group =>   2
Atom  11C    basis set group =>   1
Atom  12H    basis set group =>   2
Atom  13C    basis set group =>   1
Atom  14H    basis set group =>   2
Atom  15H    basis set group =>   2
---------------------------------
AUXILIARY/J BASIS SET INFORMATION
---------------------------------
There are 2 groups of distinct atoms

 Group   1 Type C   : 12s5p4d2f1g contracted to 6s4p3d1f1g pattern {711111/2111/211/2/1}
 Group   2 Type H   : 5s2p1d contracted to 3s1p1d pattern {311/2/1}

Atom   0C    basis set group =>   1
Atom   1C    basis set group =>   1
Atom   2C    basis set group =>   1
Atom   3H    basis set group =>   2
Atom   4H    basis set group =>   2
Atom   5C    basis set group =>   1
Atom   6C    basis set group =>   1
Atom   7H    basis set group =>   2
Atom   8H    basis set group =>   2
Atom   9C    basis set group =>   1
Atom  10H    basis set group =>   2
Atom  11C    basis set group =>   1
Atom  12H    basis set group =>   2
Atom  13C    basis set group =>   1
Atom  14H    basis set group =>   2
Atom  15H    basis set group =>   2


           ************************************************************
           *        Program running with 2 parallel MPI-processes     *
           *              working on a common directory               *
           ************************************************************
------------------------------------------------------------------------------
                           ORCA GTO INTEGRAL CALCULATION
                           -- RI-GTO INTEGRALS CHOSEN --
------------------------------------------------------------------------------
------------------------------------------------------------------------------
                   ___                                                        
                  /   \      - P O W E R E D   B Y -                         
                 /     \                                                     
                 |  |  |   _    _      __       _____    __    __             
                 |  |  |  | |  | |    /  \     |  _  \  |  |  /  |          
                  \  \/   | |  | |   /    \    | | | |  |  | /  /          
                 / \  \   | |__| |  /  /\  \   | |_| |  |  |/  /          
                |  |  |   |  __  | /  /__\  \  |    /   |      \           
                |  |  |   | |  | | |   __   |  |    \   |  |\   \          
                \     /   | |  | | |  |  |  |  | |\  \  |  | \   \       
                 \___/    |_|  |_| |__|  |__|  |_| \__\ |__|  \__/        
                                                                              
                      - O R C A' S   B I G   F R I E N D -                    
                                      &                                       
                       - I N T E G R A L  F E E D E R -                       
                                                                              
 v1 FN, 2020, v2 2021                                                         
------------------------------------------------------------------------------


Reading SHARK input file styrene-d3-631GD.SHARKINP.tmp ... ok
----------------------
SHARK INTEGRAL PACKAGE
----------------------

Number of atoms                             ...     16
Number of basis functions                   ...    152
Number of shells                            ...     72
Maximum angular momentum                    ...      2
Integral batch strategy                     ... SHARK/LIBINT Hybrid
RI-J (if used) integral strategy            ... SPLIT-RIJ (Revised 2003 algorithm where possible)
Printlevel                                  ...      1
Contraction scheme used                     ... SEGMENTED contraction
Coulomb Range Separation                    ... NOT USED
Exchange Range Separation                   ... NOT USED
Finite Nucleus Model                        ... NOT USED
Auxiliary Coulomb fitting basis             ... AVAILABLE
   # of basis functions in Aux-J            ...    480
   # of shells in Aux-J                     ...    160
   Maximum angular momentum in Aux-J        ...      4
Auxiliary J/K fitting basis                 ... NOT available
Auxiliary Correlation fitting basis         ... NOT available
Auxiliary 'external' fitting basis          ... NOT available
Integral threshold                          ...     2.500000e-11
Primitive cut-off                           ...     2.500000e-12
Primitive pair pre-selection threshold      ...     2.500000e-12

Calculating pre-screening integrals         ... done (  0.1 sec) Dimension = 72
Organizing shell pair data                  ... done (  0.6 sec)
Shell pair information
Total number of shell pairs                 ...      2628
Shell pairs after pre-screening             ...      2475
Total number of primitive shell pairs       ...      9444
Primitive shell pairs kept                  ...      6617
          la=0 lb=0:    774 shell pairs
          la=1 lb=0:    904 shell pairs
          la=1 lb=1:    280 shell pairs
          la=2 lb=0:    301 shell pairs
          la=2 lb=1:    182 shell pairs
          la=2 lb=2:     34 shell pairs

Calculating one electron integrals          ... done (  0.0 sec)
Calculating RI/J V-Matrix + Cholesky decomp.... done (  0.7 sec)
Calculating Nuclear repulsion               ... done (  0.1 sec) ENN=    321.350309361608 Eh

SHARK setup successfully completed in   2.7 seconds

Maximum memory used throughout the entire GTOINT-calculation: 8.9 MB


           ************************************************************
           *        Program running with 2 parallel MPI-processes     *
           *              working on a common directory               *
           ************************************************************
-------------------------------------------------------------------------------
                                 ORCA SCF
-------------------------------------------------------------------------------

------------
SCF SETTINGS
------------
Hamiltonian:
 Density Functional     Method          .... DFT(GTOs)
 Exchange Functional    Exchange        .... M062X
 Correlation Functional Correlation     .... M062X
 Gradients option       PostSCFGGA      .... off
 Hybrid DFT is turned on
   Fraction HF Exchange ScalHFX         ....  0.540000
   Scaling of DF-GGA-X  ScalDFX         ....  0.460000
   Scaling of DF-GGA-C  ScalDFC         ....  1.000000
   Scaling of DF-LDA-C  ScalLDAC        ....  1.000000
   Perturbative correction              ....  0.000000
   Density functional embedding theory  .... OFF
 RI-approximation to the Coulomb term is turned on
   Number of AuxJ basis functions       .... 480
   RIJ-COSX (HFX calculated with COS-X)).... on


General Settings:
 Integral files         IntName         .... styrene-d3-631GD
 Hartree-Fock type      HFTyp           .... RHF
 Total Charge           Charge          ....    0
 Multiplicity           Mult            ....    1
 Number of Electrons    NEL             ....   56
 Basis Dimension        Dim             ....  152
 Nuclear Repulsion      ENuc            ....    321.3503093616 Eh

Convergence Acceleration:
 DIIS                   CNVDIIS         .... on
   Start iteration      DIISMaxIt       ....     0
   Startup error        DIISStart       ....  0.200000
   # of expansion vecs  DIISMaxEq       ....     5
   Bias factor          DIISBfac        ....   1.050
   Max. coefficient     DIISMaxC        ....  10.000
 Trust-Rad. Augm. Hess. CNVTRAH         .... auto
   Auto Start mean grad. ratio tolernc. ....  1.125000
   Auto Start start iteration           ....    20
   Auto Start num. interpolation iter.  ....    10
   Max. Number of Micro iterations      ....    16
   Max. Number of Macro iterations      .... Maxiter - #DIIS iter
   Number of Davidson start vectors     ....     2
   Converg. threshold I  (grad. norm)   ....   1.000e-05
   Converg. threshold II (energy diff.) ....   1.000e-08
   Grad. Scal. Fac. for Micro threshold ....   0.100
   Minimum threshold for Micro iter.    ....   0.010
   NR start threshold (gradient norm)   ....   0.001
   Initial trust radius                 ....   0.400
   Minimum AH scaling param. (alpha)    ....   1.000
   Maximum AH scaling param. (alpha)    .... 1000.000
   Orbital update algorithm             .... Taylor
   White noise on init. David. guess    .... on
   Maximum white noise                  ....   0.010
   Quad. conv. algorithm                .... NR
 SOSCF                  CNVSOSCF        .... on
   Start iteration      SOSCFMaxIt      ....   150
   Startup grad/error   SOSCFStart      ....  0.001000
 Level Shifting         CNVShift        .... on
   Level shift para.    LevelShift      ....    0.2500
   Turn off err/grad.   ShiftErr        ....    0.0000
 Zerner damping         CNVZerner       .... off
 Static damping         CNVDamp         .... on
   Fraction old density DampFac         ....    0.8500
   Max. Damping (<1)    DampMax         ....    0.9800
   Min. Damping (>=0)   DampMin         ....    0.0000
   Turn off err/grad.   DampErr         ....    0.0300
 Fernandez-Rico         CNVRico         .... off

SCF Procedure:
 Maximum # iterations   MaxIter         ....   125
 SCF integral mode      SCFMode         .... Direct
   Integral package                     .... SHARK and LIBINT hybrid scheme
 Reset frequency        DirectResetFreq ....    20
 Integral Threshold     Thresh          ....  2.500e-11 Eh
 Primitive CutOff       TCut            ....  2.500e-12 Eh

Convergence Tolerance:
 Convergence Check Mode ConvCheckMode   .... Total+1el-Energy
 Convergence forced     ConvForced      .... 0
 Energy Change          TolE            ....  1.000e-08 Eh
 1-El. energy change                    ....  1.000e-05 Eh
 Orbital Gradient       TolG            ....  1.000e-05
 Orbital Rotation angle TolX            ....  1.000e-05
 DIIS Error             TolErr          ....  5.000e-07


Diagonalization of the overlap matrix:
Smallest eigenvalue                        ... 2.853e-04
Time for diagonalization                   ...    0.006 sec
Threshold for overlap eigenvalues          ... 1.000e-08
Number of eigenvalues below threshold      ... 0
Time for construction of square roots      ...    0.305 sec
Total time needed                          ...    0.312 sec

Time for model grid setup =    0.830 sec

------------------------------
INITIAL GUESS: MODEL POTENTIAL
------------------------------
Loading Hartree-Fock densities                     ... done
Calculating cut-offs                               ... done
Initializing the effective Hamiltonian             ... done
Setting up the integral package (SHARK)            ... done
Starting the Coulomb interaction                   ... done (   0.6 sec)
Reading the grid                                   ... done
Mapping shells                                     ... done
Starting the XC term evaluation                    ... done (   0.1 sec)
  promolecular density results
     # of electrons  =     55.998847906
     EX              =    -43.246921258
     EC              =     -1.830368071
     EX+EC           =    -45.077289329
Transforming the Hamiltonian                       ... done (   0.0 sec)
Diagonalizing the Hamiltonian                      ... done (   0.0 sec)
Back transforming the eigenvectors                 ... done (   0.0 sec)
Now organizing SCF variables                       ... done
                      ------------------
                      INITIAL GUESS DONE (   1.7 sec)
                      ------------------
-------------------
DFT GRID GENERATION
-------------------

General Integration Accuracy     IntAcc      ... 4.388
Radial Grid Type                 RadialGrid  ... OptM3 with GC (2021)
Angular Grid (max. ang.)         AngularGrid ... 4 (Lebedev-302)
Angular grid pruning method      GridPruning ... 4 (adaptive)
Weight generation scheme         WeightScheme... Becke
Basis function cutoff            BFCut       ... 1.0000e-11
Integration weight cutoff        WCut        ... 1.0000e-14
Angular grids for H and He will be reduced by one unit
Partially contracted basis set               ... off
Rotationally invariant grid construction     ... off

Total number of grid points                  ...    73923
Total number of batches                      ...     1164
Average number of points per batch           ...       63
Average number of grid points per atom       ...     4620
Time for grid setup =    1.727 sec

--------------------
COSX GRID GENERATION
--------------------

GRIDX 1
-------
General Integration Accuracy     IntAcc      ... 3.816
Radial Grid Type                 RadialGrid  ... OptM3 with GC (2021)
Angular Grid (max. ang.)         AngularGrid ... 1 (Lebedev-50)
Angular grid pruning method      GridPruning ... 4 (adaptive)
Weight generation scheme         WeightScheme... Becke
Basis function cutoff            BFCut       ... 1.0000e-11
Integration weight cutoff        WCut        ... 1.0000e-14
Angular grids for H and He will be reduced by one unit
Partially contracted basis set               ... on
Rotationally invariant grid construction     ... off

Total number of grid points                  ...     9476
Total number of batches                      ...      155
Average number of points per batch           ...       61
Average number of grid points per atom       ...      592
UseSFitting                                  ... on

GRIDX 2
-------
General Integration Accuracy     IntAcc      ... 4.020
Radial Grid Type                 RadialGrid  ... OptM3 with GC (2021)
Angular Grid (max. ang.)         AngularGrid ... 2 (Lebedev-110)
Angular grid pruning method      GridPruning ... 4 (adaptive)
Weight generation scheme         WeightScheme... Becke
Basis function cutoff            BFCut       ... 1.0000e-11
Integration weight cutoff        WCut        ... 1.0000e-14
Angular grids for H and He will be reduced by one unit
Partially contracted basis set               ... on
Rotationally invariant grid construction     ... off

Total number of grid points                  ...    20479
Total number of batches                      ...      327
Average number of points per batch           ...       62
Average number of grid points per atom       ...     1280
UseSFitting                                  ... on

GRIDX 3
-------
General Integration Accuracy     IntAcc      ... 4.338
Radial Grid Type                 RadialGrid  ... OptM3 with GC (2021)
Angular Grid (max. ang.)         AngularGrid ... 3 (Lebedev-194)
Angular grid pruning method      GridPruning ... 4 (adaptive)
Weight generation scheme         WeightScheme... Becke
Basis function cutoff            BFCut       ... 1.0000e-11
Integration weight cutoff        WCut        ... 1.0000e-14
Angular grids for H and He will be reduced by one unit
Partially contracted basis set               ... on
Rotationally invariant grid construction     ... off

Total number of grid points                  ...    45032
Total number of batches                      ...      714
Average number of points per batch           ...       63
Average number of grid points per atom       ...     2814
UseSFitting                                  ... on

Time for X-Grid setup             =    4.048 sec

--------------
SCF ITERATIONS
--------------
ITER       Energy         Delta-E        Max-DP      RMS-DP      [F,P]     Damp
               ***  Starting incremental Fock matrix formation  ***
  0   -309.0995269644   0.000000000000 0.02783731  0.00107345  0.1295547 0.8500
  1   -309.1373777744  -0.037850809958 0.02551190  0.00101773  0.1041653 0.8500
                               ***Turning on DIIS***
  2   -309.1657192871  -0.028341512695 0.01998462  0.00081804  0.0792850 0.8500
  3   -309.1862384896  -0.020519202472 0.01238121  0.00054797  0.0593366 0.8500
  4   -309.2018235749  -0.015585085335 0.00826665  0.00039639  0.0467611 0.8500
  5   -309.2139599393  -0.012136364363 0.00621635  0.00031490  0.0383877 0.8500
  6   -309.2237526874  -0.009792748114 0.00500123  0.00026138  0.0321650 0.8500
  7   -309.2318211472  -0.008068459778 0.02834371  0.00148924  0.0272043 0.0000
                      *** Initiating the SOSCF procedure ***
                           *** Shutting down DIIS ***
                      *** Re-Reading the Fockian *** 
                      *** Removing any level shift *** 
ITER      Energy       Delta-E        Grad      Rot      Max-DP    RMS-DP
  8   -309.27443206  -0.0426109133  0.000388  0.000388  0.000634  0.000033
               *** Restarting incremental Fock matrix formation ***
  9   -309.27446355  -0.0000314902  0.000239  0.000646  0.001071  0.000041
 10   -309.27446502  -0.0000014726  0.000080  0.000351  0.000314  0.000013
 11   -309.27446516  -0.0000001328  0.000036  0.000081  0.000145  0.000006
 12   -309.27446520  -0.0000000432  0.000013  0.000040  0.000046  0.000002
 13   -309.27446520   0.0000000033  0.000011  0.000021  0.000023  0.000001
                  ***Gradient check signals convergence***
              ***Rediagonalizing the Fockian in SOSCF/NRSCF***

               *****************************************************
               *                     SUCCESS                       *
               *           SCF CONVERGED AFTER  14 CYCLES          *
               *****************************************************

Old exchange energy                            =    -23.886761884 Eh
New exchange energy                            =    -23.886656295 Eh
Exchange energy change after final integration =      0.000105589 Eh
Total energy after final integration           =   -309.274359611 Eh
Final COS-X integration done in                =     4.258 sec

----------------
TOTAL SCF ENERGY
----------------

Total Energy       :         -309.27435961 Eh           -8415.78318 eV

Components:
Nuclear Repulsion  :          321.35030936 Eh            8744.38647 eV
Electronic Energy  :         -630.62466897 Eh          -17160.16965 eV
One Electron Energy:        -1051.51035380 Eh          -28613.05139 eV
Two Electron Energy:          420.88568483 Eh           11452.88174 eV
Max COSX asymmetry :            0.00000588 Eh               0.00016 eV

Virial components:
Potential Energy   :         -615.27915805 Eh          -16742.59707 eV
Kinetic Energy     :          306.00479844 Eh            8326.81389 eV
Virial Ratio       :            2.01068467


DFT components:
N(Alpha)           :       27.999997904219 electrons
N(Beta)            :       27.999997904219 electrons
N(Total)           :       55.999995808438 electrons
E(XC)              :      -22.285170421207 Eh       
DFET-embed. en.    :        0.000000000000 Eh       

---------------
SCF CONVERGENCE
---------------

  Last Energy change         ...   -3.7185e-09  Tolerance :   1.0000e-08
  Last MAX-Density change    ...    2.1233e-15  Tolerance :   1.0000e-07
  Last RMS-Density change    ...    3.9824e-17  Tolerance :   5.0000e-09
  Last Orbital Gradient      ...    1.1758e-06  Tolerance :   1.0000e-05
  Last Orbital Rotation      ...    3.7796e-06  Tolerance :   1.0000e-05

             **** THE GBW FILE WAS UPDATED (styrene-d3-631GD.gbw) ****
             **** DENSITY styrene-d3-631GD.scfp WAS UPDATED ****
             **** ENERGY FILE WAS UPDATED (styrene-d3-631GD.en.tmp) ****
             **** THE GBW FILE WAS UPDATED (styrene-d3-631GD.gbw) ****
             **** DENSITY styrene-d3-631GD.scfp WAS UPDATED ****
----------------
ORBITAL ENERGIES
----------------

  NO   OCC          E(Eh)            E(eV) 
   0   2.0000     -10.562019      -287.4072 
   1   2.0000     -10.560667      -287.3703 
   2   2.0000     -10.556363      -287.2532 
   3   2.0000     -10.556175      -287.2481 
   4   2.0000     -10.555669      -287.2344 
   5   2.0000     -10.555451      -287.2284 
   6   2.0000     -10.555157      -287.2204 
   7   2.0000     -10.552424      -287.1461 
   8   2.0000      -0.959853       -26.1189 
   9   2.0000      -0.881817       -23.9955 
  10   2.0000      -0.836647       -22.7663 
  11   2.0000      -0.809587       -22.0300 
  12   2.0000      -0.704302       -19.1650 
  13   2.0000      -0.683129       -18.5889 
  14   2.0000      -0.635333       -17.2883 
  15   2.0000      -0.590094       -16.0573 
  16   2.0000      -0.545078       -14.8323 
  17   2.0000      -0.523236       -14.2380 
  18   2.0000      -0.507992       -13.8232 
  19   2.0000      -0.488891       -13.3034 
  20   2.0000      -0.476350       -12.9621 
  21   2.0000      -0.449458       -12.2304 
  22   2.0000      -0.435121       -11.8403 
  23   2.0000      -0.404734       -11.0134 
  24   2.0000      -0.398646       -10.8477 
  25   2.0000      -0.363504        -9.8914 
  26   2.0000      -0.310569        -8.4510 
  27   2.0000      -0.277723        -7.5572 
  28   0.0000      -0.006879        -0.1872 
  29   0.0000       0.028064         0.7637 
  30   0.0000       0.092298         2.5116 
  31   0.0000       0.105813         2.8793 
  32   0.0000       0.121911         3.3174 
  33   0.0000       0.132801         3.6137 
  34   0.0000       0.159304         4.3349 
  35   0.0000       0.163872         4.4592 
  36   0.0000       0.189898         5.1674 
  37   0.0000       0.211909         5.7663 
  38   0.0000       0.220944         6.0122 
  39   0.0000       0.233421         6.3517 
  40   0.0000       0.300912         8.1882 
  41   0.0000       0.321378         8.7452 
  42   0.0000       0.332855         9.0574 
  43   0.0000       0.351884         9.5753 
  44   0.0000       0.360128         9.7996 
  45   0.0000       0.390404        10.6234 
  46   0.0000       0.406465        11.0605 
  47   0.0000       0.433209        11.7882 
  48   0.0000       0.442317        12.0361 
  49   0.0000       0.458962        12.4890 
  50   0.0000       0.475096        12.9280 
  51   0.0000       0.485902        13.2221 
  52   0.0000       0.509745        13.8709 
  53   0.0000       0.530113        14.4251 
  54   0.0000       0.542215        14.7544 
  55   0.0000       0.546786        14.8788 
  56   0.0000       0.560324        15.2472 
  57   0.0000       0.575088        15.6489 
  58   0.0000       0.585254        15.9256 
  59   0.0000       0.598250        16.2792 
  60   0.0000       0.609512        16.5857 
  61   0.0000       0.644571        17.5397 
  62   0.0000       0.675878        18.3916 
  63   0.0000       0.697930        18.9916 
  64   0.0000       0.704213        19.1626 
  65   0.0000       0.708800        19.2874 
  66   0.0000       0.719609        19.5815 
  67   0.0000       0.725860        19.7517 
  68   0.0000       0.739634        20.1265 
  69   0.0000       0.746607        20.3162 
  70   0.0000       0.755364        20.5545 
  71   0.0000       0.766552        20.8589 
  72   0.0000       0.785330        21.3699 
  73   0.0000       0.798502        21.7284 
  74   0.0000       0.811575        22.0841 
  75   0.0000       0.841963        22.9110 
  76   0.0000       0.851902        23.1814 
  77   0.0000       0.873127        23.7590 
  78   0.0000       0.911388        24.8001 
  79   0.0000       0.923521        25.1303 
  80   0.0000       0.995254        27.0822 
  81   0.0000       1.090043        29.6616 
  82   0.0000       1.112349        30.2686 
  83   0.0000       1.124364        30.5955 
  84   0.0000       1.178507        32.0688 
  85   0.0000       1.254100        34.1258 
  86   0.0000       1.282937        34.9105 
  87   0.0000       1.301130        35.4055 
  88   0.0000       1.309906        35.6444 
  89   0.0000       1.316930        35.8355 
  90   0.0000       1.321756        35.9668 
  91   0.0000       1.331678        36.2368 
  92   0.0000       1.359750        37.0007 
  93   0.0000       1.376584        37.4588 
  94   0.0000       1.411936        38.4207 
  95   0.0000       1.543153        41.9913 
  96   0.0000       1.660425        45.1825 
  97   0.0000       1.682248        45.7763 
  98   0.0000       1.696869        46.1741 
  99   0.0000       1.711521        46.5729 
 100   0.0000       1.739544        47.3354 
 101   0.0000       1.745512        47.4978 
 102   0.0000       1.768274        48.1172 
 103   0.0000       1.777810        48.3767 
 104   0.0000       1.798775        48.9472 
 105   0.0000       1.810357        49.2623 
 106   0.0000       1.812299        49.3152 
 107   0.0000       1.828835        49.7651 
 108   0.0000       1.837091        49.9898 
 109   0.0000       1.843868        50.1742 
 110   0.0000       1.884801        51.2880 
 111   0.0000       1.916864        52.1605 
 112   0.0000       1.950029        53.0630 
 113   0.0000       1.987289        54.0769 
 114   0.0000       1.994539        54.2742 
 115   0.0000       2.001536        54.4646 
 116   0.0000       2.020541        54.9817 
 117   0.0000       2.034392        55.3586 
 118   0.0000       2.081932        56.6522 
 119   0.0000       2.122051        57.7439 
 120   0.0000       2.139677        58.2236 
 121   0.0000       2.146928        58.4209 
 122   0.0000       2.175282        59.1924 
 123   0.0000       2.183067        59.4043 
 124   0.0000       2.253225        61.3134 
 125   0.0000       2.281367        62.0792 
 126   0.0000       2.303092        62.6703 
 127   0.0000       2.316790        63.0431 
 128   0.0000       2.341979        63.7285 
 129   0.0000       2.370905        64.5156 
 130   0.0000       2.384379        64.8823 
 131   0.0000       2.426708        66.0341 
 132   0.0000       2.442989        66.4771 
 133   0.0000       2.506102        68.1945 
 134   0.0000       2.598909        70.7199 
 135   0.0000       2.616262        71.1921 
 136   0.0000       2.637264        71.7636 
 137   0.0000       2.651254        72.1443 
 138   0.0000       2.692233        73.2594 
 139   0.0000       2.740258        74.5662 
 140   0.0000       2.766035        75.2676 
 141   0.0000       2.773987        75.4840 
 142   0.0000       2.811769        76.5121 
 143   0.0000       2.889252        78.6206 
 144   0.0000       2.907282        79.1112 
 145   0.0000       2.929752        79.7226 
 146   0.0000       3.032796        82.5266 
 147   0.0000       3.095336        84.2284 
 148   0.0000       3.172710        86.3338 
 149   0.0000       3.246104        88.3310 
 150   0.0000       3.397522        92.4513 
 151   0.0000       3.676428       100.0407 

                    ********************************
                    * MULLIKEN POPULATION ANALYSIS *
                    ********************************

-----------------------
MULLIKEN ATOMIC CHARGES
-----------------------
   0 C :    0.042520
   1 C :   -0.037837
   2 C :   -0.045707
   3 H :    0.004537
   4 H :    0.005777
   5 C :   -0.006795
   6 C :   -0.005134
   7 H :    0.013454
   8 H :    0.014937
   9 C :   -0.011902
  10 H :    0.015799
  11 C :   -0.033331
  12 H :    0.017924
  13 C :   -0.068186
  14 H :    0.044587
  15 H :    0.049356
Sum of atomic charges:    0.0000000

--------------------------------
MULLIKEN REDUCED ORBITAL CHARGES
--------------------------------
  0 C s       :     3.010704  s :     3.010704
      pz      :     0.985005  p :     2.906408
      px      :     0.947349
      py      :     0.974055
      dz2     :     0.003546  d :     0.040368
      dxz     :     0.006079
      dyz     :     0.006268
      dx2y2   :     0.011892
      dxy     :     0.012583
  1 C s       :     3.189602  s :     3.189602
      pz      :     0.977788  p :     2.815591
      px      :     0.888215
      py      :     0.949587
      dz2     :     0.002477  d :     0.032644
      dxz     :     0.004551
      dyz     :     0.004526
      dx2y2   :     0.009719
      dxy     :     0.011371
  2 C s       :     3.207394  s :     3.207394
      pz      :     0.988160  p :     2.805602
      px      :     0.953201
      py      :     0.864241
      dz2     :     0.002756  d :     0.032711
      dxz     :     0.006425
      dyz     :     0.002671
      dx2y2   :     0.010832
      dxy     :     0.010027
  3 H s       :     0.973233  s :     0.973233
      pz      :     0.004413  p :     0.022230
      px      :     0.009692
      py      :     0.008126
  4 H s       :     0.972039  s :     0.972039
      pz      :     0.004183  p :     0.022184
      px      :     0.003318
      py      :     0.014683
  5 C s       :     3.150867  s :     3.150867
      pz      :     0.980721  p :     2.822256
      px      :     0.970265
      py      :     0.871270
      dz2     :     0.002721  d :     0.033671
      dxz     :     0.006584
      dyz     :     0.002807
      dx2y2   :     0.011483
      dxy     :     0.010076
  6 C s       :     3.149423  s :     3.149423
      pz      :     0.978374  p :     2.822172
      px      :     0.916928
      py      :     0.926870
      dz2     :     0.002448  d :     0.033539
      dxz     :     0.004675
      dyz     :     0.004919
      dx2y2   :     0.009832
      dxy     :     0.011665
  7 H s       :     0.964279  s :     0.964279
      pz      :     0.004075  p :     0.022267
      px      :     0.003400
      py      :     0.014792
  8 H s       :     0.962785  s :     0.962785
      pz      :     0.004550  p :     0.022277
      px      :     0.009651
      py      :     0.008076
  9 C s       :     3.152738  s :     3.152738
      pz      :     0.986638  p :     2.825827
      px      :     0.880208
      py      :     0.958981
      dz2     :     0.002894  d :     0.033337
      dxz     :     0.003086
      dyz     :     0.005954
      dx2y2   :     0.010896
      dxy     :     0.010506
 10 H s       :     0.961977  s :     0.961977
      pz      :     0.003932  p :     0.022224
      px      :     0.014135
      py      :     0.004157
 11 C s       :     3.153168  s :     3.153168
      pz      :     0.970600  p :     2.846963
      px      :     0.944545
      py      :     0.931818
      dz2     :     0.003442  d :     0.033199
      dxz     :     0.006893
      dyz     :     0.003265
      dx2y2   :     0.011205
      dxy     :     0.008395
 12 H s       :     0.960018  s :     0.960018
      pz      :     0.005164  p :     0.022058
      px      :     0.003173
      py      :     0.013721
 13 C s       :     3.113624  s :     3.113624
      pz      :     0.992173  p :     2.929843
      px      :     0.977273
      py      :     0.960397
      dz2     :     0.002551  d :     0.024719
      dxz     :     0.003739
      dyz     :     0.003331
      dx2y2   :     0.008008
      dxy     :     0.007089
 14 H s       :     0.932207  s :     0.932207
      pz      :     0.006231  p :     0.023206
      px      :     0.003800
      py      :     0.013175
 15 H s       :     0.927486  s :     0.927486
      pz      :     0.004114  p :     0.023159
      px      :     0.012885
      py      :     0.006160


                     *******************************
                     * LOEWDIN POPULATION ANALYSIS *
                     *******************************

----------------------
LOEWDIN ATOMIC CHARGES
----------------------
   0 C :   -0.036350
   1 C :   -0.017884
   2 C :   -0.023661
   3 H :    0.029819
   4 H :    0.029840
   5 C :   -0.026989
   6 C :   -0.028725
   7 H :    0.031897
   8 H :    0.032069
   9 C :   -0.030306
  10 H :    0.031140
  11 C :   -0.024165
  12 H :    0.031375
  13 C :   -0.051072
  14 H :    0.023657
  15 H :    0.029355

-------------------------------
LOEWDIN REDUCED ORBITAL CHARGES
-------------------------------
  0 C s       :     2.841137  s :     2.841137
      pz      :     0.966828  p :     3.085930
      px      :     1.043424
      py      :     1.075678
      dz2     :     0.008425  d :     0.109284
      dxz     :     0.013025
      dyz     :     0.014286
      dx2y2   :     0.035713
      dxy     :     0.037834
  1 C s       :     2.851265  s :     2.851265
      pz      :     0.972385  p :     3.077126
      px      :     1.054578
      py      :     1.050164
      dz2     :     0.005977  d :     0.089493
      dxz     :     0.009704
      dyz     :     0.009964
      dx2y2   :     0.029207
      dxy     :     0.034639
  2 C s       :     2.853881  s :     2.853881
      pz      :     0.978492  p :     3.079858
      px      :     1.062999
      py      :     1.038367
      dz2     :     0.006540  d :     0.089922
      dxz     :     0.014591
      dyz     :     0.005517
      dx2y2   :     0.033186
      dxy     :     0.030088
  3 H s       :     0.901302  s :     0.901302
      pz      :     0.015364  p :     0.068879
      px      :     0.028581
      py      :     0.024934
  4 H s       :     0.902023  s :     0.902023
      pz      :     0.014872  p :     0.068137
      px      :     0.012604
      py      :     0.040661
  5 C s       :     2.852843  s :     2.852843
      pz      :     0.970115  p :     3.082607
      px      :     1.070073
      py      :     1.042418
      dz2     :     0.006600  d :     0.091540
      dxz     :     0.014955
      dyz     :     0.005631
      dx2y2   :     0.034129
      dxy     :     0.030225
  6 C s       :     2.852914  s :     2.852914
      pz      :     0.970678  p :     3.084452
      px      :     1.055997
      py      :     1.057777
      dz2     :     0.006012  d :     0.091358
      dxz     :     0.010242
      dyz     :     0.010878
      dx2y2   :     0.029532
      dxy     :     0.034694
  7 H s       :     0.900377  s :     0.900377
      pz      :     0.014405  p :     0.067726
      px      :     0.012726
      py      :     0.040595
  8 H s       :     0.900105  s :     0.900105
      pz      :     0.015521  p :     0.067826
      px      :     0.028026
      py      :     0.024278
  9 C s       :     2.854490  s :     2.854490
      pz      :     0.974717  p :     3.085335
      px      :     1.044644
      py      :     1.065974
      dz2     :     0.006929  d :     0.090480
      dxz     :     0.006291
      dyz     :     0.013635
      dx2y2   :     0.032348
      dxy     :     0.031277
 10 H s       :     0.900731  s :     0.900731
      pz      :     0.014195  p :     0.068129
      px      :     0.039019
      py      :     0.014915
 11 C s       :     2.865148  s :     2.865148
      pz      :     0.978459  p :     3.069228
      px      :     1.048998
      py      :     1.041771
      dz2     :     0.007762  d :     0.089789
      dxz     :     0.016372
      dyz     :     0.008237
      dx2y2   :     0.032796
      dxy     :     0.024623
 12 H s       :     0.901624  s :     0.901624
      pz      :     0.017108  p :     0.067002
      px      :     0.011593
      py      :     0.038300
 13 C s       :     2.879584  s :     2.879584
      pz      :     0.998201  p :     3.104553
      px      :     1.059819
      py      :     1.046534
      dz2     :     0.006205  d :     0.066935
      dxz     :     0.008669
      dyz     :     0.008794
      dx2y2   :     0.023088
      dxy     :     0.020180
 14 H s       :     0.906654  s :     0.906654
      pz      :     0.019930  p :     0.069688
      px      :     0.012231
      py      :     0.037527
 15 H s       :     0.901362  s :     0.901362
      pz      :     0.014297  p :     0.069283
      px      :     0.035888
      py      :     0.019098


                      *****************************
                      * MAYER POPULATION ANALYSIS *
                      *****************************

  NA   - Mulliken gross atomic population
  ZA   - Total nuclear charge
  QA   - Mulliken gross atomic charge
  VA   - Mayer's total valence
  BVA  - Mayer's bonded valence
  FA   - Mayer's free valence

  ATOM       NA         ZA         QA         VA         BVA        FA
  0 C      5.9575     6.0000     0.0425     3.8510     3.8510     0.0000
  1 C      6.0378     6.0000    -0.0378     3.8810     3.8810     0.0000
  2 C      6.0457     6.0000    -0.0457     3.8571     3.8571    -0.0000
  3 H      0.9955     1.0000     0.0045     0.9855     0.9855     0.0000
  4 H      0.9942     1.0000     0.0058     0.9839     0.9839    -0.0000
  5 C      6.0068     6.0000    -0.0068     3.8722     3.8722     0.0000
  6 C      6.0051     6.0000    -0.0051     3.8567     3.8567    -0.0000
  7 H      0.9865     1.0000     0.0135     0.9770     0.9770    -0.0000
  8 H      0.9851     1.0000     0.0149     0.9768     0.9768     0.0000
  9 C      6.0119     6.0000    -0.0119     3.8446     3.8446     0.0000
 10 H      0.9842     1.0000     0.0158     0.9771     0.9771     0.0000
 11 C      6.0333     6.0000    -0.0333     3.9977     3.9977    -0.0000
 12 H      0.9821     1.0000     0.0179     0.9816     0.9816     0.0000
 13 C      6.0682     6.0000    -0.0682     3.9384     3.9384    -0.0000
 14 H      0.9554     1.0000     0.0446     0.9781     0.9781     0.0000
 15 H      0.9506     1.0000     0.0494     0.9735     0.9735     0.0000

  Mayer bond orders larger than 0.100000
B(  0-C ,  1-C ) :   1.3635 B(  0-C ,  2-C ) :   1.3672 B(  0-C , 11-C ) :   1.0599 
B(  1-C ,  3-H ) :   0.9853 B(  1-C ,  5-C ) :   1.4239 B(  2-C ,  4-H ) :   0.9949 
B(  2-C ,  6-C ) :   1.3903 B(  5-C ,  7-H ) :   0.9868 B(  5-C ,  9-C ) :   1.3743 
B(  6-C ,  8-H ) :   0.9886 B(  6-C ,  9-C ) :   1.3963 B(  9-C , 10-H ) :   0.9904 
B( 11-C , 12-H ) :   0.9674 B( 11-C , 13-C ) :   1.9526 B( 13-C , 14-H ) :   0.9507 
B( 13-C , 15-H ) :   0.9510 

-------
TIMINGS
-------

Total SCF time: 0 days 0 hours 1 min 23 sec 

Total time                  ....      83.845 sec
Sum of individual times     ....      76.651 sec  ( 91.4%)

Fock matrix formation       ....      67.123 sec  ( 80.1%)
  Split-RI-J                ....       3.497 sec  (  5.2% of F)
  Chain of spheres X        ....      25.715 sec  ( 38.3% of F)
  XC integration            ....      29.288 sec  ( 43.6% of F)
    Basis function eval.    ....       2.807 sec  (  9.6% of XC)
    Density eval.           ....       3.706 sec  ( 12.7% of XC)
    XC-Functional eval.     ....       1.538 sec  (  5.3% of XC)
    XC-Potential eval.      ....       3.825 sec  ( 13.1% of XC)
Diagonalization             ....       0.114 sec  (  0.1%)
Density matrix formation    ....       0.006 sec  (  0.0%)
Population analysis         ....       0.355 sec  (  0.4%)
Initial guess               ....       0.879 sec  (  1.0%)
Orbital Transformation      ....       0.000 sec  (  0.0%)
Orbital Orthonormalization  ....       0.000 sec  (  0.0%)
DIIS solution               ....       1.163 sec  (  1.4%)
SOSCF solution              ....       0.405 sec  (  0.5%)
Grid generation             ....       6.605 sec  (  7.9%)

Maximum memory used throughout the entire SCF-calculation: 53.0 MB
NOTIFICATION: Different basis set in ORCA and otool_gcp:
ORCA: 152  gCP: 128 
If you are NOT using ECPs, check your basis set inputs!
------------------   -----------------
gCP correction             0.030528952
------------------   -----------------

-------------------------   --------------------
FINAL SINGLE POINT ENERGY      -309.243830659049
-------------------------   --------------------



           ************************************************************
           *        Program running with 2 parallel MPI-processes     *
           *              working on a common directory               *
           ************************************************************
------------------------------------------------------------------------------
                         ORCA SCF GRADIENT CALCULATION
------------------------------------------------------------------------------

 ... reading COSX grid (gridx3)
Gradient of the Kohn-Sham DFT energy:
Kohn-Sham wavefunction type      ... RKS
Hartree-Fock exchange scaling    ...    0.540
Number of operators              ...    1
Number of atoms                  ...   16
Basis set dimensions             ...  152
Integral neglect threshold       ... 2.5e-11
Integral primitive cutoff        ... 2.5e-12
SHARK Integral package           ... ON

Nuc. rep. gradient       (SHARK) ... done (  0.0 sec)
HCore & Overlap gradient (SHARK) ... done (  0.1 sec)
RI-J gradient            (SHARK) ... done (  0.6 sec)
COSX-gradient                    ... done (  4.8 sec)
Exchange-correlation gradient    ... done
gCP correction                   ... done

------------------
CARTESIAN GRADIENT
------------------

   1   C   :   -0.002828998   -0.000267323   -0.000237248
   2   C   :   -0.000542851    0.001522636   -0.000349016
   3   C   :    0.001391828   -0.001367075    0.000696992
   4   H   :    0.005695234   -0.005328029    0.001853270
   5   H   :    0.001570541    0.008032774   -0.001307136
   6   C   :   -0.000902958    0.000516482    0.000072996
   7   C   :   -0.000785292   -0.001119426   -0.000029387
   8   H   :   -0.001774937   -0.008219591    0.001339559
   9   H   :   -0.006246536    0.005384492   -0.002018190
  10   C   :   -0.000488313    0.000126828   -0.000129439
  11   H   :   -0.007933451   -0.002791704   -0.000702847
  12   C   :    0.019356076   -0.013054764    0.003872663
  13   H   :    0.001145048    0.008283022   -0.002547120
  14   C   :   -0.015720056    0.015383778    0.000617421
  15   H   :   -0.000618237   -0.010654545    0.000956708
  16   H   :    0.008784482    0.003327148   -0.002138943

Difference to translation invariance:
           :    0.0001015796   -0.0002252967   -0.0000497175

Difference to rotation invariance:
           :    0.0003869773    0.0010835682    0.0013430128

Norm of the cartesian gradient     ...    0.0411757842
RMS gradient                       ...    0.0059432125
MAX gradient                       ...    0.0193560757

-------
TIMINGS
-------

Total SCF gradient time            ...        9.775 sec

One electron gradient       ....       0.148 sec  (  1.5%)
RI-J Coulomb gradient       ....       0.638 sec  (  6.5%)
COSX gradient               ....       4.828 sec  ( 49.4%)
XC gradient                 ....       2.803 sec  ( 28.7%)

Maximum memory used throughout the entire SCFGRAD-calculation: 40.7 MB


           ************************************************************
           *        Program running with 2 parallel MPI-processes     *
           *              working on a common directory               *
           ************************************************************

-------------------------------------------------------------------------------
                               ORCA SCF HESSIAN
-------------------------------------------------------------------------------

Hessian of the Kohn-Sham DFT energy:
Kohn-Sham wavefunction type                      ... RKS
Hartree-Fock exchange scaling                    ...    0.540
Number of operators                              ...    1
Number of atoms                                  ...   16
Basis set dimensions                             ...  152
Integral neglect threshold                       ... 2.5e-11
Integral primitive cutoff                        ... 2.5e-12

Setting up DFT Hessian calculations              ... 

HESS GRID
---------

General Integration Accuracy     IntAcc      ... 4.629
Radial Grid Type                 RadialGrid  ... OptM3 with GC (2021)
Angular Grid (max. ang.)         AngularGrid ... 5 (Lebedev-434)
Angular grid pruning method      GridPruning ... 4 (adaptive)
Weight generation scheme         WeightScheme... Becke
Basis function cutoff            BFCut       ... 1.0000e-11
Integration weight cutoff        WCut        ... 1.0000e-14
Angular grids for H and He will be reduced by one unit
Partially contracted basis set               ... off
Rotationally invariant grid construction     ... off

Total number of grid points                  ...   114859
Total number of batches                      ...     1803
Average number of points per batch           ...       63
Average number of grid points per atom       ...     7179

Building densities                               ... done   (      0.0 sec)
Calculating rho(r) on the grid                   ... done   (      1.2 sec)
Building xc-kernel on the grid                   ... done   (      1.4 sec)
                                                     done   (      5.2 sec)

Nuclear repulsion Hessian  (SHARK)               ... done   (      0.0 sec)

----------------------------------------------
Forming right-hand sides of CP-SCF equations     ...
----------------------------------------------
One electron integral derivatives  (SHARK)       ... done   (      0.2 sec)
Transforming the overlap derivative matrices     ... done   (      2.8 sec)
Making the Q(x) pseudodensities                  ... done   (      0.0 sec)
Adding the E*S(x)*S(y) terms to the Hessian      ... done   (      0.0 sec)
Calculating energy weighted overlap derivatives  ... done   (      5.7 sec)
Two electron integral derivatives (SHARK-RI)     ... done   (      8.1 sec)
Exchange-correlation integral derivatives        ... done   (     77.2 sec)
tr(F(y)Q(x)) contribution to the Hessian         ... done   (      0.0 sec)
Response fock operator R(S(x)) (SHARK-RIJCOSX)   ... done   (      8.5 sec)
XC Response fock operator R(S(x))                ... done   (     31.8 sec)
tr(F(y)S(x)) contribution to the Hessian         ... done   (      0.0 sec)
Transforming and finalizing RHSs                 ... done   (      2.1 sec)

----------------------------------------------
Solving the CP-SCF equations (RIJCOSX)           ...
----------------------------------------------
     CP-SCF ITERATION   0:   1.4034e-01 (   7.4 sec   0/ 48 done)
     CP-SCF ITERATION   1:   8.1566e-02 (   7.2 sec   0/ 48 done)
     CP-SCF ITERATION   2:   1.6554e-02 (   7.3 sec   0/ 48 done)
     CP-SCF ITERATION   3:   9.9586e-03 (   7.2 sec   0/ 48 done)
     CP-SCF ITERATION   4:   5.1039e-03 (   7.2 sec   0/ 48 done)
     CP-SCF ITERATION   5:   1.8708e-03 (   7.3 sec   1/ 48 done)
     CP-SCF ITERATION   6:   5.1793e-04 (   7.6 sec  22/ 48 done)
     CP-SCF ITERATION   7:   2.4137e-04 (   5.0 sec  32/ 48 done)
     CP-SCF ITERATION   8:   8.4834e-05 (   3.4 sec  48/ 48 done)
                    *** THE CP-SCF HAS CONVERGED ***

                                                 ... done   (     61.3 sec)
Forming perturbed density Hessian contributions  ... done   (      0.0 sec)
2nd integral derivative contribs (SHARK-RI)      ... done   (     45.9 sec)
Exchange-correlation Hessian                     ... done   (     37.4 sec)
gCP correction in the Hessian                    ... done   (      0.5 sec)
Dipole derivatives                               ... done   (      0.6 sec)

Total SCF Hessian time: 0 days 0 hours 4 min 53 sec 

Writing the Hessian file to the disk             ... done


Maximum memory used throughout the entire SCFHESS-calculation: 130.0 MB

-----------------------
VIBRATIONAL FREQUENCIES
-----------------------

Scaling factor for frequencies =  1.000000000  (already applied!)

   0:         0.00 cm**-1
   1:         0.00 cm**-1
   2:         0.00 cm**-1
   3:         0.00 cm**-1
   4:         0.00 cm**-1
   5:         0.00 cm**-1
   6:       -88.90 cm**-1 ***imaginary mode***
   7:       115.52 cm**-1
   8:       210.71 cm**-1
   9:       374.47 cm**-1
  10:       388.05 cm**-1
  11:       421.09 cm**-1
  12:       497.77 cm**-1
  13:       556.59 cm**-1
  14:       626.12 cm**-1
  15:       668.72 cm**-1
  16:       699.93 cm**-1
  17:       743.14 cm**-1
  18:       754.24 cm**-1
  19:       808.87 cm**-1
  20:       820.05 cm**-1
  21:       835.89 cm**-1
  22:       924.43 cm**-1
  23:       977.81 cm**-1
  24:       997.70 cm**-1
  25:      1003.95 cm**-1
  26:      1015.47 cm**-1
  27:      1048.90 cm**-1
  28:      1065.47 cm**-1
  29:      1107.60 cm**-1
  30:      1149.11 cm**-1
  31:      1177.54 cm**-1
  32:      1287.45 cm**-1
  33:      1315.21 cm**-1
  34:      1384.01 cm**-1
  35:      1493.03 cm**-1
  36:      1541.34 cm**-1
  37:      1653.63 cm**-1
  38:      1692.75 cm**-1
  39:      1723.11 cm**-1
  40:      2396.63 cm**-1
  41:      2440.66 cm**-1
  42:      2530.22 cm**-1
  43:      3292.92 cm**-1
  44:      3301.25 cm**-1
  45:      3310.16 cm**-1
  46:      3317.56 cm**-1
  47:      3325.21 cm**-1


------------
NORMAL MODES
------------

These modes are the Cartesian displacements weighted by the diagonal matrix
M(i,i)=1/sqrt(m[i]) where m[i] is the mass of the displaced atom
Thus, these vectors are normalized but *not* orthogonal

                  0          1          2          3          4          5    
      0       0.000000   0.000000   0.000000   0.000000   0.000000   0.000000
      1       0.000000   0.000000   0.000000   0.000000   0.000000   0.000000
      2       0.000000   0.000000   0.000000   0.000000   0.000000   0.000000
      3       0.000000   0.000000   0.000000   0.000000   0.000000   0.000000
      4       0.000000   0.000000   0.000000   0.000000   0.000000   0.000000
      5       0.000000   0.000000   0.000000   0.000000   0.000000   0.000000
      6       0.000000   0.000000   0.000000   0.000000   0.000000   0.000000
      7       0.000000   0.000000   0.000000   0.000000   0.000000   0.000000
      8       0.000000   0.000000   0.000000   0.000000   0.000000   0.000000
      9       0.000000   0.000000   0.000000   0.000000   0.000000   0.000000
     10       0.000000   0.000000   0.000000   0.000000   0.000000   0.000000
     11       0.000000   0.000000   0.000000   0.000000   0.000000   0.000000
     12       0.000000   0.000000   0.000000   0.000000   0.000000   0.000000
     13       0.000000   0.000000   0.000000   0.000000   0.000000   0.000000
     14       0.000000   0.000000   0.000000   0.000000   0.000000   0.000000
     15       0.000000   0.000000   0.000000   0.000000   0.000000   0.000000
     16       0.000000   0.000000   0.000000   0.000000   0.000000   0.000000
     17       0.000000   0.000000   0.000000   0.000000   0.000000   0.000000
     18       0.000000   0.000000   0.000000   0.000000   0.000000   0.000000
     19       0.000000   0.000000   0.000000   0.000000   0.000000   0.000000
     20       0.000000   0.000000   0.000000   0.000000   0.000000   0.000000
     21       0.000000   0.000000   0.000000   0.000000   0.000000   0.000000
     22       0.000000   0.000000   0.000000   0.000000   0.000000   0.000000
     23       0.000000   0.000000   0.000000   0.000000   0.000000   0.000000
     24       0.000000   0.000000   0.000000   0.000000   0.000000   0.000000
     25       0.000000   0.000000   0.000000   0.000000   0.000000   0.000000
     26       0.000000   0.000000   0.000000   0.000000   0.000000   0.000000
     27       0.000000   0.000000   0.000000   0.000000   0.000000   0.000000
     28       0.000000   0.000000   0.000000   0.000000   0.000000   0.000000
     29       0.000000   0.000000   0.000000   0.000000   0.000000   0.000000
     30       0.000000   0.000000   0.000000   0.000000   0.000000   0.000000
     31       0.000000   0.000000   0.000000   0.000000   0.000000   0.000000
     32       0.000000   0.000000   0.000000   0.000000   0.000000   0.000000
     33       0.000000   0.000000   0.000000   0.000000   0.000000   0.000000
     34       0.000000   0.000000   0.000000   0.000000   0.000000   0.000000
     35       0.000000   0.000000   0.000000   0.000000   0.000000   0.000000
     36       0.000000   0.000000   0.000000   0.000000   0.000000   0.000000
     37       0.000000   0.000000   0.000000   0.000000   0.000000   0.000000
     38       0.000000   0.000000   0.000000   0.000000   0.000000   0.000000
     39       0.000000   0.000000   0.000000   0.000000   0.000000   0.000000
     40       0.000000   0.000000   0.000000   0.000000   0.000000   0.000000
     41       0.000000   0.000000   0.000000   0.000000   0.000000   0.000000
     42       0.000000   0.000000   0.000000   0.000000   0.000000   0.000000
     43       0.000000   0.000000   0.000000   0.000000   0.000000   0.000000
     44       0.000000   0.000000   0.000000   0.000000   0.000000   0.000000
     45       0.000000   0.000000   0.000000   0.000000   0.000000   0.000000
     46       0.000000   0.000000   0.000000   0.000000   0.000000   0.000000
     47       0.000000   0.000000   0.000000   0.000000   0.000000   0.000000
                  6          7          8          9         10         11    
      0       0.004085   0.038094  -0.019623  -0.035030   0.019640   0.005720
      1       0.000945  -0.038880   0.166145   0.052772  -0.042346  -0.092982
      2      -0.025710  -0.205376  -0.017725   0.131927  -0.047557   0.130684
      3       0.020001   0.039031   0.083091   0.010699   0.028982   0.053114
      4      -0.011812  -0.039544   0.148820  -0.002600  -0.059890  -0.129816
      5      -0.087202  -0.203957   0.004000  -0.166521  -0.130585   0.045453
      6      -0.009347   0.030178  -0.086129  -0.030954  -0.001155   0.127905
      7       0.016285  -0.032729   0.083704   0.009900   0.025789  -0.062318
      8       0.054754  -0.163039  -0.024824  -0.026609   0.219063  -0.021466
      9       0.048524   0.045259   0.143036   0.072099   0.037429   0.023656
     10      -0.024890  -0.058278   0.215253  -0.034356  -0.112537  -0.191594
     11      -0.223500  -0.284152  -0.018153  -0.470711  -0.320843  -0.053239
     12      -0.018604   0.034645  -0.193705  -0.045074  -0.017234   0.280543
     13       0.024543  -0.041617   0.103357   0.001484   0.081178  -0.119301
     14       0.091499  -0.209361  -0.048099  -0.095847   0.525876  -0.146908
     15       0.016791   0.006168   0.139449  -0.009372  -0.033255   0.030435
     16      -0.012758   0.003226   0.016045   0.007040   0.034799  -0.034888
     17      -0.059688   0.022362   0.046185   0.010756   0.204547  -0.052172
     18      -0.011418  -0.001248  -0.046506  -0.006975   0.047622   0.120326
     19       0.015783   0.008354  -0.063253  -0.040938  -0.014660   0.052420
     20       0.089102   0.055273  -0.018601  -0.162888  -0.133869  -0.016126
     21       0.031877  -0.007533   0.252692   0.016280  -0.103321  -0.068938
     22      -0.028407   0.019989  -0.002461  -0.003407   0.091247  -0.040781
     23      -0.140537   0.112595   0.079184  -0.021308   0.476637  -0.225085
     24      -0.026009  -0.020302  -0.120648   0.018242   0.088463   0.166889
     25       0.026359   0.030519  -0.159285  -0.103770  -0.039803   0.074436
     26       0.161667   0.172735  -0.050224  -0.408943  -0.325180  -0.094793
     27       0.002609  -0.022483   0.066422  -0.042198   0.023209   0.083136
     28       0.001348   0.039012  -0.082076   0.015195   0.003987   0.081743
     29       0.028711   0.209167   0.020693   0.143593  -0.062352   0.069135
     30       0.001923  -0.066830   0.099429  -0.064542   0.033397   0.056890
     31       0.001087   0.099733  -0.176198   0.039546  -0.002261   0.147260
     32       0.037661   0.490976   0.019311   0.311704  -0.159270   0.111569
     33       0.028652  -0.003029   0.022106  -0.009618  -0.008227  -0.128019
     34      -0.040774   0.018351   0.055318  -0.001253   0.016923   0.150603
     35      -0.130411   0.023342  -0.003983   0.168788  -0.071595   0.008401
     36       0.134680  -0.020163   0.206334   0.039827  -0.055014  -0.291056
     37      -0.213544   0.117308   0.041548  -0.061199   0.049003   0.139665
     38      -0.546618   0.279002   0.033488   0.026932  -0.003571  -0.077673
     39      -0.047176  -0.051403  -0.136740   0.066154  -0.041017  -0.188331
     40       0.034475   0.017040  -0.210463  -0.019396   0.022629   0.053910
     41       0.139223   0.127877  -0.009947   0.000691  -0.009973  -0.078069
     42      -0.196129  -0.066310  -0.437530   0.174182  -0.126707  -0.540353
     43       0.260661  -0.092109  -0.204838   0.066899  -0.000069   0.088877
     44       0.585532  -0.104044  -0.060482   0.205744  -0.075209  -0.080105
     45       0.017247  -0.118122   0.007534   0.131572  -0.052792  -0.026235
[...]
     37       0.004844   0.006024  -0.223524   0.037805   0.006144  -0.012036
     38      -0.000573  -0.003504   0.046782   0.004833   0.001210  -0.004072
     39       0.000044  -0.000738  -0.111527  -0.016488  -0.007986   0.035417
     40      -0.003111  -0.003885   0.117933  -0.005596  -0.001629  -0.012938
     41       0.000709   0.000171  -0.029857  -0.001224  -0.000203   0.006399
     42      -0.007445  -0.023796   0.101742   0.006449   0.023554  -0.022087
     43      -0.003153  -0.002869   0.153686  -0.005223  -0.003129  -0.023110
     44       0.000817  -0.001398   0.002449   0.001753   0.003133   0.000856
     45      -0.006807  -0.013110   0.049033  -0.030389  -0.006570   0.035704
     46       0.009604   0.017039  -0.250820   0.010462  -0.008683   0.018713
     47      -0.002478  -0.004086   0.031037  -0.004624  -0.001049   0.001172
                 36         37         38         39         40         41    
      0       0.146123  -0.013617  -0.068002   0.269685   0.005049   0.005146
      1       0.080529   0.239556   0.202218   0.023886   0.002053   0.007315
      2       0.012292  -0.063602  -0.060539   0.050136   0.000611  -0.000182
      3      -0.020252  -0.012149  -0.132959  -0.246252   0.000614   0.001184
      4      -0.124128  -0.163368  -0.194049  -0.142007   0.001304  -0.001193
      5       0.026731   0.039214   0.018420  -0.018416  -0.000157   0.000362
      6      -0.118459   0.184357  -0.062390  -0.309265   0.001042  -0.002390
      7       0.062022  -0.101698  -0.111658   0.014831  -0.000090  -0.000870
      8      -0.041305   0.064927   0.013205  -0.071931   0.000229  -0.000237
      9       0.336831   0.251302   0.170187   0.156516  -0.000782   0.001729
     10       0.238629   0.101306   0.132194   0.313637  -0.003134   0.000599
     11       0.014747   0.020904   0.013469  -0.051359   0.001153   0.000672
     12       0.460707  -0.258651  -0.022368   0.340222  -0.004202  -0.004599
     13      -0.025645  -0.030911  -0.137482  -0.101897  -0.000619  -0.001979
     14       0.106539  -0.050448   0.031583   0.098586  -0.001187  -0.000825
     15      -0.161105  -0.170141   0.082582   0.282336  -0.000563   0.000017
     16       0.055678   0.146603   0.098932   0.003460  -0.000044   0.000062
     17      -0.050060  -0.074413  -0.006947   0.062325  -0.000118  -0.000065
     18      -0.058047  -0.050548   0.148670   0.210814  -0.000622   0.000239
     19      -0.143166   0.152585   0.221241   0.112899  -0.000096   0.001022
     20       0.021926  -0.048310  -0.021292   0.019603  -0.000087  -0.000234
     21       0.488274   0.234147  -0.034667  -0.269991  -0.000246   0.000326
     22      -0.046993   0.102386   0.138461   0.108401   0.000038  -0.000176
     23       0.120941   0.027318  -0.043411  -0.090542  -0.000024   0.000052
     24       0.323502  -0.166576  -0.226731  -0.074106  -0.000581  -0.001520
     25       0.259229   0.064680  -0.183585  -0.227009  -0.000151  -0.001615
     26       0.014294  -0.052990  -0.008646   0.035102  -0.000155   0.000002
     27       0.101650   0.125988  -0.019490  -0.127775   0.000145  -0.000161
     28       0.059253  -0.297188  -0.213134   0.001085   0.000100  -0.000087
     29       0.007984   0.101494   0.048484  -0.028562   0.000010   0.000002
     30       0.154726  -0.082040  -0.154884  -0.122229   0.000165  -0.000464
     31      -0.018072   0.377771   0.159386  -0.087208   0.000317  -0.000100
     32       0.038474  -0.114845  -0.074405  -0.007137  -0.000181  -0.000072
     33       0.017196  -0.269349   0.354777  -0.229281  -0.038539   0.032182
     34      -0.044088   0.063489  -0.133180   0.052017  -0.081227  -0.173338
     35       0.008054  -0.046624   0.072502  -0.042251   0.003327   0.024338
     36      -0.033721   0.050495  -0.151882   0.074039   0.045181   0.059117
     37      -0.070162   0.117419  -0.230385   0.086374   0.545264   0.813301
     38       0.002747  -0.002425  -0.002263   0.007393  -0.053535  -0.081990
     39      -0.045791   0.182023  -0.230218   0.121941   0.108975  -0.093314
     40       0.029801  -0.099560   0.139834  -0.070803  -0.067547   0.078393
     41      -0.010408   0.037936  -0.050690   0.025864   0.022966  -0.021954
     42       0.012001  -0.091952   0.093101  -0.056228  -0.004882  -0.002213
     43       0.056343  -0.217951   0.319146  -0.162794   0.594095  -0.419392
     44      -0.001010   0.012436  -0.016677   0.009989  -0.056608   0.039398
     45      -0.034479   0.193199  -0.244130   0.133806  -0.494470   0.288274
     46      -0.046657   0.148264  -0.204968   0.101241  -0.263491   0.140401
     47      -0.001562   0.011916  -0.018962   0.009765  -0.050486   0.030488
                 42         43         44         45         46         47    
      0      -0.001641  -0.002848  -0.000642  -0.001584   0.000046  -0.000909
      1       0.001416   0.001125   0.001685  -0.000805   0.002908  -0.000764
      2      -0.000446  -0.000913  -0.000550  -0.000148  -0.000712  -0.000010
      3       0.000287  -0.004653   0.022415  -0.031216   0.043009  -0.021447
      4      -0.000430   0.005501  -0.022730   0.029759  -0.036293   0.016566
      5       0.000167  -0.002526   0.011109  -0.014934   0.019309  -0.009227
      6       0.000248  -0.014870  -0.007283  -0.006592  -0.005858  -0.004745
      7      -0.000311  -0.071651  -0.030727  -0.023176  -0.015194  -0.012420
      8       0.000116   0.014300   0.005921   0.004234   0.002435   0.001996
      9      -0.001756   0.063691  -0.282289   0.369653  -0.472392   0.222442
     10       0.001920  -0.059073   0.255138  -0.333472   0.421011  -0.196399
     11      -0.001128   0.030081  -0.131139   0.171583  -0.217814   0.102080
     12      -0.000246   0.184104   0.078494   0.058169   0.040203   0.031968
     13      -0.000858   0.823756   0.346832   0.253961   0.165938   0.132210
     14       0.000231  -0.161356  -0.067764  -0.049324  -0.031848  -0.025288
     15       0.000112  -0.003602   0.012864  -0.001968  -0.011637   0.008042
     16      -0.000025  -0.015281   0.055945  -0.024003  -0.037164   0.041813
     17      -0.000013   0.003103  -0.011381   0.005683   0.006841  -0.008831
     18      -0.000032  -0.021871   0.007942   0.035047   0.034324   0.031340
     19       0.000021   0.022394  -0.003621  -0.027064  -0.030287  -0.030493
     20      -0.000037  -0.010361   0.002651   0.014421   0.015040   0.014425
     21       0.000162   0.041156  -0.147520   0.056312   0.096920  -0.099103
     22      -0.000060   0.182501  -0.654839   0.266334   0.415618  -0.449483
     23      -0.000022  -0.037196   0.133655  -0.055176  -0.084116   0.092260
     24      -0.000137   0.282365  -0.075135  -0.380775  -0.381955  -0.354563
     25      -0.000310  -0.253750   0.063115   0.332975   0.338256   0.317410
     26       0.000082   0.124880  -0.032159  -0.166124  -0.167661  -0.156486
     27       0.000066   0.017164  -0.036570  -0.044059   0.014764   0.054152
     28      -0.000040   0.005924  -0.014809  -0.013086   0.009348   0.019590
     29      -0.000005   0.002318  -0.004411  -0.006522   0.000949   0.007154
     30      -0.000091  -0.208066   0.438128   0.498701  -0.176675  -0.592627
     31      -0.000235  -0.074777   0.159247   0.176193  -0.068175  -0.212955
     32       0.000059  -0.027486   0.057377   0.066494  -0.022051  -0.078279
     33      -0.004718  -0.000225   0.000128  -0.000266   0.000321  -0.000168
     34       0.007419  -0.000077  -0.000256   0.000085  -0.000427   0.000124
     35      -0.001509  -0.000021   0.000062  -0.000072   0.000157  -0.000055
     36       0.004677   0.001387   0.000320   0.000750  -0.000394   0.000556
     37      -0.052822   0.000612   0.000177   0.000377  -0.000111   0.000267
     38       0.006609   0.000181   0.000015   0.000107  -0.000068   0.000059
     39       0.113344   0.000225   0.000073   0.000075   0.000008   0.000143
     40       0.165294   0.000100   0.000086   0.000081   0.000038   0.000017
     41       0.001659   0.000027  -0.000014   0.000012  -0.000023   0.000029
     42      -0.006774  -0.000281   0.000236  -0.000501   0.000582  -0.000315
     43      -0.646444  -0.000112   0.000948  -0.001225   0.001468  -0.000631
     44       0.060133   0.000035  -0.000148   0.000190  -0.000239   0.000112
     45      -0.643453   0.000071  -0.000002  -0.000033   0.000060   0.000059
     46      -0.341976  -0.000220   0.000082  -0.000350   0.000248  -0.000176
     47      -0.065936   0.000009  -0.000036   0.000043  -0.000067   0.000031


-----------
IR SPECTRUM
-----------

 Mode   freq       eps      Int      T**2         TX        TY        TZ
       cm**-1   L/(mol*cm) km/mol    a.u.
----------------------------------------------------------------------------
  6:     44.33   0.000006    0.03  0.000045  ( 0.004073  0.003840 -0.003727)
  7:    190.97   0.000347    1.76  0.000568  (-0.003786  0.006167  0.022700)
  8:    221.08   0.000077    0.39  0.000108  ( 0.008555 -0.001350  0.005742)
  9:    408.07   0.000469    2.37  0.000359  (-0.003577  0.002411  0.018449)
 10:    417.32   0.000031    0.16  0.000023  (-0.001599 -0.000058  0.004546)
 11:    430.38   0.000571    2.88  0.000414  (-0.006734  0.005896  0.018268)
 12:    510.18   0.000437    2.21  0.000267  ( 0.015421  0.003110  0.004427)
 13:    592.64   0.000271    1.37  0.000143  (-0.000735  0.004739  0.010951)
 14:    628.83   0.000003    0.01  0.000001  ( 0.000145  0.001115 -0.000061)
 15:    720.24   0.002705   13.67  0.001172  (-0.008363  0.011077  0.031295)
 16:    740.33   0.008550   43.21  0.003604  (-0.012147  0.008051  0.058238)
 17:    750.07   0.000610    3.08  0.000254  (-0.010847 -0.005706 -0.010170)
 18:    783.21   0.006338   32.03  0.002526  (-0.010692  0.010493  0.047970)
 19:    835.19   0.000852    4.31  0.000318  (-0.000046 -0.007913 -0.015991)
 20:    843.94   0.000883    4.46  0.000327  (-0.013797 -0.003455  0.011152)
 21:    876.72   0.000006    0.03  0.000002  (-0.000586  0.000173 -0.001390)
 22:    962.94   0.000682    3.44  0.000221  (-0.004661  0.002613  0.013869)
 23:   1004.73   0.000668    3.37  0.000207  (-0.013787  0.003386 -0.002416)
 24:   1013.78   0.000231    1.17  0.000071  (-0.007586  0.003598 -0.000857)
 25:   1018.52   0.000015    0.08  0.000005  ( 0.000228 -0.001791 -0.001188)
 26:   1042.25   0.000017    0.08  0.000005  ( 0.000625 -0.000780 -0.002001)
 27:   1054.09   0.000032    0.16  0.000009  ( 0.000852 -0.002945 -0.000073)
 28:   1064.71   0.000505    2.55  0.000148  ( 0.011342  0.003916  0.001998)
 29:   1113.98   0.001604    8.11  0.000449  (-0.009993  0.017820 -0.005649)
 30:   1164.73   0.000037    0.19  0.000010  ( 0.002262  0.002023  0.000896)
 31:   1195.25   0.000001    0.01  0.000000  (-0.000141  0.000294 -0.000504)
 32:   1265.12   0.000186    0.94  0.000046  (-0.004903 -0.004621 -0.000734)
 33:   1325.14   0.000382    1.93  0.000090  ( 0.006720  0.006691  0.000149)
 34:   1353.58   0.000113    0.57  0.000026  ( 0.004423 -0.002274  0.001131)
 35:   1483.92   0.001826    9.23  0.000384  (-0.002111 -0.019067  0.003991)
 36:   1536.54   0.002954   14.93  0.000600  ( 0.023951  0.003211  0.004008)
 37:   1658.71   0.000921    4.66  0.000173  (-0.011193  0.006007 -0.003461)
 38:   1681.84   0.000702    3.55  0.000130  ( 0.011332 -0.000476  0.001271)
 39:   1695.16   0.000036    0.18  0.000007  ( 0.002409  0.000929  0.000145)
 40:   2311.56   0.000905    4.57  0.000122  (-0.006937 -0.008602 -0.000183)
 41:   2361.33   0.000524    2.65  0.000069  (-0.004407 -0.007060 -0.000036)
 42:   2434.14   0.000200    1.01  0.000026  ( 0.001388  0.004860 -0.000317)
 43:   3186.14   0.000782    3.95  0.000077  (-0.006199 -0.006175  0.000244)
 44:   3193.75   0.000032    0.16  0.000003  ( 0.001541 -0.000780  0.000323)
 45:   3203.45   0.000626    3.16  0.000061  (-0.003577 -0.006891  0.000811)
 46:   3210.63   0.002012   10.17  0.000196  ( 0.006931 -0.011307  0.004438)
 47:   3218.08   0.000914    4.62  0.000089  ( 0.008667  0.003564  0.000889)

* The epsilon (eps) is given for a Dirac delta lineshape.
** The dipole moment derivative (T) already includes vibrational overlap.

The first frequency considered to be a vibration is 6
The total number of vibrations considered is 42


--------------------------
THERMOCHEMISTRY AT 298.15K
--------------------------

Temperature         ... 298.15 K
Pressure            ... 1.00 atm
Total Mass          ... 107.13 AMU

Throughout the following assumptions are being made:
  (1) The electronic state is orbitally nondegenerate
  (2) There are no thermally accessible electronically excited states
  (3) Hindered rotations indicated by low frequency modes are not
      treated as such but are treated as vibrations and this may
      cause some error
  (4) All equations used are the standard statistical mechanics
      equations for an ideal gas
  (5) All vibrations are strictly harmonic

freq.      44.33  E(vib)   ...       0.53 
freq.     190.97  E(vib)   ...       0.36 
freq.     221.08  E(vib)   ...       0.33 
freq.     408.07  E(vib)   ...       0.19 
freq.     417.32  E(vib)   ...       0.18 
freq.     430.38  E(vib)   ...       0.18 
freq.     510.18  E(vib)   ...       0.14 
freq.     592.64  E(vib)   ...       0.10 
freq.     628.83  E(vib)   ...       0.09 
freq.     720.24  E(vib)   ...       0.07 
freq.     740.33  E(vib)   ...       0.06 
freq.     750.07  E(vib)   ...       0.06 
freq.     783.21  E(vib)   ...       0.05 
freq.     835.19  E(vib)   ...       0.04 
freq.     843.94  E(vib)   ...       0.04 
freq.     876.72  E(vib)   ...       0.04 
freq.     962.94  E(vib)   ...       0.03 
freq.    1004.73  E(vib)   ...       0.02 
freq.    1013.78  E(vib)   ...       0.02 
freq.    1018.52  E(vib)   ...       0.02 
freq.    1042.25  E(vib)   ...       0.02 
freq.    1054.09  E(vib)   ...       0.02 
freq.    1064.71  E(vib)   ...       0.02 
freq.    1113.98  E(vib)   ...       0.01 
freq.    1164.73  E(vib)   ...       0.01 
freq.    1195.25  E(vib)   ...       0.01 
freq.    1265.12  E(vib)   ...       0.01 
freq.    1325.14  E(vib)   ...       0.01 
freq.    1353.58  E(vib)   ...       0.01 
freq.    1483.92  E(vib)   ...       0.00 
freq.    1536.54  E(vib)   ...       0.00 
freq.    1658.71  E(vib)   ...       0.00 
freq.    1681.84  E(vib)   ...       0.00 
freq.    1695.16  E(vib)   ...       0.00 
freq.    2311.56  E(vib)   ...       0.00 
freq.    2361.33  E(vib)   ...       0.00 
freq.    2434.14  E(vib)   ...       0.00 
freq.    3186.14  E(vib)   ...       0.00 
freq.    3193.75  E(vib)   ...       0.00 
freq.    3203.45  E(vib)   ...       0.00 
freq.    3210.63  E(vib)   ...       0.00 
freq.    3218.08  E(vib)   ...       0.00 

------------
INNER ENERGY
------------

The inner energy is: U= E(el) + E(ZPE) + E(vib) + E(rot) + E(trans)
    E(el)   - is the total energy from the electronic structure calculation
              = E(kin-el) + E(nuc-el) + E(el-el) + E(nuc-nuc)
    E(ZPE)  - the the zero temperature vibrational energy from the frequency calculation
    E(vib)  - the the finite temperature correction to E(ZPE) due to population
              of excited vibrational states
    E(rot)  - is the rotational thermal energy
    E(trans)- is the translational thermal energy

Summary of contributions to the inner energy U:
Electronic energy                ...   -309.24594782 Eh
Zero point energy                ...      0.12472406 Eh      78.27 kcal/mol
Thermal vibrational correction   ...      0.00427203 Eh       2.68 kcal/mol
Thermal rotational correction    ...      0.00141627 Eh       0.89 kcal/mol
Thermal translational correction ...      0.00141627 Eh       0.89 kcal/mol
-----------------------------------------------------------------------
Total thermal energy                   -309.11411919 Eh


Summary of corrections to the electronic energy:
(perhaps to be used in another calculation)
Total thermal correction                  0.00710457 Eh       4.46 kcal/mol
Non-thermal (ZPE) correction              0.12472406 Eh      78.27 kcal/mol
-----------------------------------------------------------------------
Total correction                          0.13182863 Eh      82.72 kcal/mol


--------
ENTHALPY
--------

The enthalpy is H = U + kB*T
                kB is Boltzmann's constant
Total free energy                 ...   -309.11411919 Eh 
Thermal Enthalpy correction       ...      0.00094421 Eh       0.59 kcal/mol
-----------------------------------------------------------------------
Total Enthalpy                    ...   -309.11317498 Eh


Note: Only C1 symmetry has been detected, increase convergence thresholds 
      if your molecule has a higher symmetry. Symmetry factor of 1.0 is   
      used for the rotational entropy correction. 
 

Note: Rotational entropy computed according to Herzberg 
Infrared and Raman Spectra, Chapter V,1, Van Nostrand Reinhold, 1945 
Point Group:  C1, Symmetry Number:   1  
Rotational constants in cm-1:     0.164341     0.047182     0.036712 

Vibrational entropy computed according to the QRRHO of S. Grimme
Chem.Eur.J. 2012 18 9955


-------
ENTROPY
-------

The entropy contributions are T*S = T*(S(el)+S(vib)+S(rot)+S(trans))
     S(el)   - electronic entropy
     S(vib)  - vibrational entropy
     S(rot)  - rotational entropy
     S(trans)- translational entropy
The entropies will be listed as multiplied by the temperature to get
units of energy

Electronic entropy                ...      0.00000000 Eh      0.00 kcal/mol
Vibrational entropy               ...      0.00688092 Eh      4.32 kcal/mol
Rotational entropy                ...      0.01336506 Eh      8.39 kcal/mol
Translational entropy             ...      0.01896876 Eh     11.90 kcal/mol
-----------------------------------------------------------------------
Final entropy term                ...      0.03921474 Eh     24.61 kcal/mol

In case the symmetry of your molecule has not been determined correctly
or in case you have a reason to use a different symmetry number we print 
out the resulting rotational entropy values for sn=1,12 :
 --------------------------------------------------------
|  sn= 1 | S(rot)=       0.01336506 Eh      8.39 kcal/mol|
|  sn= 2 | S(rot)=       0.01271060 Eh      7.98 kcal/mol|
|  sn= 3 | S(rot)=       0.01232777 Eh      7.74 kcal/mol|
|  sn= 4 | S(rot)=       0.01205615 Eh      7.57 kcal/mol|
|  sn= 5 | S(rot)=       0.01184546 Eh      7.43 kcal/mol|
|  sn= 6 | S(rot)=       0.01167331 Eh      7.33 kcal/mol|
|  sn= 7 | S(rot)=       0.01152777 Eh      7.23 kcal/mol|
|  sn= 8 | S(rot)=       0.01140169 Eh      7.15 kcal/mol|
|  sn= 9 | S(rot)=       0.01129048 Eh      7.08 kcal/mol|
|  sn=10 | S(rot)=       0.01119100 Eh      7.02 kcal/mol|
|  sn=11 | S(rot)=       0.01110101 Eh      6.97 kcal/mol|
|  sn=12 | S(rot)=       0.01101886 Eh      6.91 kcal/mol|
 --------------------------------------------------------


-------------------
GIBBS FREE ENERGY
-------------------

The Gibbs free energy is G = H - T*S

Total enthalpy                    ...   -309.11317498 Eh 
Total entropy correction          ...     -0.03921474 Eh    -24.61 kcal/mol
-----------------------------------------------------------------------
Final Gibbs free energy         ...   -309.15238972 Eh

For completeness - the Gibbs free energy minus the electronic energy
G-E(el)                           ...      0.09355810 Eh     58.71 kcal/mol


Timings for individual modules:

Sum of individual times         ...     1756.064 sec (=  29.268 min)
GTO integral calculation        ...       20.339 sec (=   0.339 min)   1.2 %
SCF iterations                  ...      493.533 sec (=   8.226 min)  28.1 %
SCF Gradient evaluation         ...       61.958 sec (=   1.033 min)   3.5 %
Geometry relaxation             ...        2.994 sec (=   0.050 min)   0.2 %
Analytical frequency calculation...     1177.240 sec (=  19.621 min)  67.0 %
                             ****ORCA TERMINATED NORMALLY****
TOTAL RUN TIME: 0 days 0 hours 30 minutes 1 seconds 912 msec
