
                                 *****************
                                 * O   R   C   A *
                                 *****************

                                            #,                                       
                                            ###                                      
                                            ####                                     
                                            #####                                    
                                            ######                                   
                                           ########,                                 
                                     ,,################,,,,,                         
                               ,,#################################,,                 
                          ,,##########################################,,             
                       ,#########################################, ''#####,          
                    ,#############################################,,   '####,        
                  ,##################################################,,,,####,       
                ,###########''''           ''''###############################       
              ,#####''   ,,,,##########,,,,          '''####'''          '####       
            ,##' ,,,,###########################,,,                        '##       
           ' ,,###''''                  '''############,,,                           
         ,,##''                                '''############,,,,        ,,,,,,###''
      ,#''                                            '''#######################'''  
     '                                                          ''''####''''         
             ,#######,   #######,   ,#######,      ##                                
            ,#'     '#,  ##    ##  ,#'     '#,    #''#        ######   ,####,        
            ##       ##  ##   ,#'  ##            #'  '#       #        #'  '#        
            ##       ##  #######   ##           ,######,      #####,   #    #        
            '#,     ,#'  ##    ##  '#,     ,#' ,#      #,         ##   #,  ,#        
             '#######'   ##     ##  '#######'  #'      '#     #####' # '####'        



                  #######################################################
                  #                        -***-                        #
                  #          Department of theory and spectroscopy      #
                  #    Directorship and core code : Frank Neese         #
                  #        Max Planck Institute fuer Kohlenforschung    #
                  #                Kaiser Wilhelm Platz 1               #
                  #                 D-45470 Muelheim/Ruhr               #
                  #                      Germany                        #
                  #                                                     #
                  #                  All rights reserved                #
                  #                        -***-                        #
                  #######################################################


                         Program Version 5.0.1 -  RELEASE  -


 With contributions from (in alphabetic order):
   Daniel Aravena         : Magnetic Suceptibility
   Michael Atanasov       : Ab Initio Ligand Field Theory (pilot matlab implementation)
   Alexander A. Auer      : GIAO ZORA, VPT2 properties, NMR spectrum
   Ute Becker             : Parallelization
   Giovanni Bistoni       : ED, misc. LED, open-shell LED, HFLD
   Martin Brehm           : Molecular dynamics
   Dmytro Bykov           : SCF Hessian
   Vijay G. Chilkuri      : MRCI spin determinant printing, contributions to CSF-ICE
   Dipayan Datta          : RHF DLPNO-CCSD density
   Achintya Kumar Dutta   : EOM-CC, STEOM-CC
   Dmitry Ganyushin       : Spin-Orbit,Spin-Spin,Magnetic field MRCI
   Miquel Garcia          : C-PCM and meta-GGA Hessian, CC/C-PCM, Gaussian charge scheme
   Yang Guo               : DLPNO-NEVPT2, F12-NEVPT2, CIM, IAO-localization
   Andreas Hansen         : Spin unrestricted coupled pair/coupled cluster methods
   Benjamin Helmich-Paris : MC-RPA, TRAH-SCF, COSX integrals
   Lee Huntington         : MR-EOM, pCC
   Robert Izsak           : Overlap fitted RIJCOSX, COSX-SCS-MP3, EOM
   Marcus Kettner         : VPT2
   Christian Kollmar      : KDIIS, OOCD, Brueckner-CCSD(T), CCSD density, CASPT2, CASPT2-K
   Simone Kossmann        : Meta GGA functionals, TD-DFT gradient, OOMP2, MP2 Hessian
   Martin Krupicka        : Initial AUTO-CI
   Lucas Lang             : DCDCAS
   Marvin Lechner         : AUTO-CI (C++ implementation), FIC-MRCC
   Dagmar Lenk            : GEPOL surface, SMD
   Dimitrios Liakos       : Extrapolation schemes; Compound Job, initial MDCI parallelization
   Dimitrios Manganas     : Further ROCIS development; embedding schemes
   Dimitrios Pantazis     : SARC Basis sets
   Anastasios Papadopoulos: AUTO-CI, single reference methods and gradients
   Taras Petrenko         : DFT Hessian,TD-DFT gradient, ASA, ECA, R-Raman, ABS, FL, XAS/XES, NRVS
   Peter Pinski           : DLPNO-MP2, DLPNO-MP2 Gradient
   Christoph Reimann      : Effective Core Potentials
   Marius Retegan         : Local ZFS, SOC
   Christoph Riplinger    : Optimizer, TS searches, QM/MM, DLPNO-CCSD(T), (RO)-DLPNO pert. Triples
   Tobias Risthaus        : Range-separated hybrids, TD-DFT gradient, RPA, STAB
   Michael Roemelt        : Original ROCIS implementation
   Masaaki Saitow         : Open-shell DLPNO-CCSD energy and density
   Barbara Sandhoefer     : DKH picture change effects
   Avijit Sen             : IP-ROCIS
   Kantharuban Sivalingam : CASSCF convergence, NEVPT2, FIC-MRCI
   Bernardo de Souza      : ESD, SOC TD-DFT
   Georgi Stoychev        : AutoAux, RI-MP2 NMR, DLPNO-MP2 response
   Willem Van den Heuvel  : Paramagnetic NMR
   Boris Wezisla          : Elementary symmetry handling
   Frank Wennmohs         : Technical directorship


 We gratefully acknowledge several colleagues who have allowed us to
 interface, adapt or use parts of their codes:
   Stefan Grimme, W. Hujo, H. Kruse, P. Pracht,  : VdW corrections, initial TS optimization,
                  C. Bannwarth, S. Ehlert          DFT functionals, gCP, sTDA/sTD-DF
   Ed Valeev, F. Pavosevic, A. Kumar             : LibInt (2-el integral package), F12 methods
   Garnet Chan, S. Sharma, J. Yang, R. Olivares  : DMRG
   Ulf Ekstrom                                   : XCFun DFT Library
   Mihaly Kallay                                 : mrcc  (arbitrary order and MRCC methods)
   Jiri Pittner, Ondrej Demel                    : Mk-CCSD
   Frank Weinhold                                : gennbo (NPA and NBO analysis)
   Christopher J. Cramer and Donald G. Truhlar   : smd solvation model
   Lars Goerigk                                  : TD-DFT with DH, B97 family of functionals
   V. Asgeirsson, H. Jonsson                     : NEB implementation
   FAccTs GmbH                                   : IRC, NEB, NEB-TS, DLPNO-Multilevel, CI-OPT
                                                   MM, QMMM, 2- and 3-layer-ONIOM, Crystal-QMMM,
                                                   LR-CPCM, SF, NACMEs, symmetry and pop. for TD-DFT,
                                                   nearIR, NL-DFT gradient (VV10), updates on ESD,
                                                   ML-optimized integration grids
   S Lehtola, MJT Oliveira, MAL Marques          : LibXC Library
   Liviu Ungur et al                             : ANISO software


 Your calculation uses the libint2 library for the computation of 2-el integrals
 For citations please refer to: http://libint.valeyev.net

 Your ORCA version has been built with support for libXC version: 5.1.0
 For citations please refer to: https://tddft.org/programs/libxc/

 This ORCA versions uses:
   CBLAS   interface :  Fast vector & matrix operations
   LAPACKE interface :  Fast linear algebra routines
   SCALAPACK package :  Parallel linear algebra routines
   Shared memory     :  Shared parallel matrices
   BLAS/LAPACK       :  OpenBLAS 0.3.15  USE64BITINT DYNAMIC_ARCH NO_AFFINITY Haswell SINGLE_THREADED
        Core in use  :  Haswell
   Copyright (c) 2011-2014, The OpenBLAS Project


Your calculation utilizes the geometrical counterpoise correction gCP
Please cite in your paper:
H.Kruse, S. Grimme J.Chem.Phys., 136, (2012), 154101 
   

XCFun DFT library Copyright 2009-2010 Ulf Ekstrom and contributors.
See http://admol.org/xcfun for more information.
This is free software; see the source code for copying conditions.
There is ABSOLUTELY NO WARRANTY; not even for MERCHANTABILITY or FITNESS FOR A PARTICULAR PURPOSE.
For details see the documentation.
Scientific users of this library should cite U. Ekstrom, L. Visscher, R. Bast, A. J. Thorvaldsen and K. Ruud;
J.Chem.Theor.Comp. 2010, DOI: 10.1021/ct100117s
XCFun Version 0.99 

================================================================================

----- Orbital basis set information -----
Your calculation utilizes the basis: def2-SVP
   F. Weigend and R. Ahlrichs, Phys. Chem. Chem. Phys. 7, 3297 (2005).

----- AuxJ basis set information -----
Your calculation utilizes the auxiliary basis: def2/J
   F. Weigend, Phys. Chem. Chem. Phys. 8, 1057 (2006).

================================================================================
                                        WARNINGS
                       Please study these warnings very carefully!
================================================================================

WARNING: Old DensityContainer found on disk!
         Will remove this file - 
         If you want to keep old densities, please start your calculation with a different basename. 


WARNING: your system is open-shell and RHF/RKS was chosen
  ===> : WILL SWITCH to UHF/UKS


WARNING: Geometry Optimization
  ===> : Switching off AutoStart
         For restart on a previous wavefunction, please use MOREAD

WARNING: Minnesota functionals are quite sensitive to the integration grid.
         see SE Wheeler, KN Houk, JCTC 2010, 6, 395,
             N Mardirossian, M Head-Gordon, JCTC 2016, 12, 4303.
         DEFGRID3 seems to be a minimum grid for reliable results with these functionals!
  ===> : Please increase the integration grid!


INFO   : the flag for use of the SHARK integral package has been found!

================================================================================
                                       INPUT FILE
================================================================================
NAME = styreneoxide-TS-term-d3-m062x631d-PM.inp
|  1> #memory request in MB
|  2> %maxcore 1000
|  3> 
|  4> #method, basis set, type of calculation
|  5> #(optimization followed by frequency calculation)
|  6> ! M062X GCP(DFT/631GD) TIGHTSCF OptTS Freq PAL2 Slowconv
|  7> %geom
|  8> maxiter 500
|  9> Calc_Hess true
| 10> Recalc_Hess 2
| 11> end
| 12> #xyz for cartesian coordinates, charge, spin multiplicity
| 13> *xyz 0 3
| 14> #atomic symbol, coordinates
| 15> #17
| 16> #symmetry c1
| 17> C       -0.052262000     -0.404272000     -0.144394000
| 18> C        0.255556000      0.944018000     -0.355006000
| 19> C        0.983265000     -1.279283000      0.192615000
| 20> H       -0.533858000      1.648691000     -0.583281000
| 21> H        0.754329000     -2.323185000      0.371442000
| 22> C        1.559724000      1.393618000     -0.247626000
| 23> C        2.290099000     -0.830021000      0.297244000
| 24> H        1.781273000      2.440609000     -0.409039000
| 25> H        3.080199000     -1.522701000      0.556328000
| 26> C        2.582449000      0.508282000      0.075156000
| 27> H        3.600918000      0.864176000      0.160056000
| 28> C       -1.412994000     -0.923332000     -0.249791000
| 29> H       -1.562665000     -1.928310000      0.131084000 M 2
| 30> C       -2.480161000     -0.256786000     -0.733737000
| 31> H       -2.391949000      0.712219000     -1.204117000 M 2
| 32> H       -3.444868000     -0.739859000     -0.803037000 M 2
| 33> O       -2.970818000      0.617570000      1.179055000
| 34> *
| 35> 
| 36> 
| 37> 
| 38> 
| 39>                          ****END OF INPUT****
================================================================================

                       *****************************
                       * Geometry Optimization Run *
                       *****************************

Geometry optimization settings:
Update method            Update   .... Bofill
Choice of coordinates    CoordSys .... Z-matrix Internals
Initial Hessian          InHess   .... Almoef's Model

Convergence Tolerances:
Energy Change            TolE     ....  5.0000e-06 Eh
Max. Gradient            TolMAXG  ....  3.0000e-04 Eh/bohr
RMS Gradient             TolRMSG  ....  1.0000e-04 Eh/bohr
Max. Displacement        TolMAXD  ....  4.0000e-03 bohr
RMS Displacement         TolRMSD  ....  2.0000e-03 bohr
Strict Convergence                ....  False
------------------------------------------------------------------------------
                        ORCA OPTIMIZATION COORDINATE SETUP
------------------------------------------------------------------------------

The optimization will be done in new redundant internal coordinates
Making redundant internal coordinates   ...  (new redundants) done
Following TS mode number                ...     0
Evaluating the initial hessian          ...  (Is done on the fly) done
Evaluating the coordinates              ...  done
Calculating the B-matrix                .... done
Calculating the G-matrix                .... done
Diagonalizing the G-matrix              .... done
Small eigenvalue found = 2.951e-02
The first mode is                       ....   48
The number of degrees of freedom        ....   45

    -----------------------------------------------------------------
                    Redundant Internal Coordinates


    -----------------------------------------------------------------
         Definition                    Initial Value    d2E/dq (diagonal element)
    -----------------------------------------------------------------
      1. B(C   1,C   0)                  1.3989         0.000000   
      2. B(C   2,C   0)                  1.3970         0.000000   
      3. B(H   3,C   1)                  1.0825         0.000000   
      4. B(H   4,C   2)                  1.0836         0.000000   
      5. B(C   5,C   1)                  1.3837         0.000000   
      6. B(C   6,C   2)                  1.3859         0.000000   
      7. B(H   7,C   5)                  1.0823         0.000000   
      8. B(H   8,C   6)                  1.0822         0.000000   
      9. B(C   9,C   6)                  1.3877         0.000000   
     10. B(C   9,C   5)                  1.3907         0.000000   
     11. B(H  10,C   9)                  1.0822         0.000000   
     12. B(C  11,C   0)                  1.4602         0.000000   
     13. B(H  12,C  11)                  1.0851         0.000000   
     14. B(C  13,C  11)                  1.3481         0.000000   
     15. B(H  14,C  13)                  1.0807         0.000000   
     16. B(H  15,C  13)                  1.0811         0.000000   
     17. B(O  16,H  15)                  2.4487         0.000000   
     18. B(O  16,H  14)                  2.4543         0.000000   
     19. B(O  16,C  13)                  2.1596         0.000000   
     20. B(O  16,C  11)                  2.6159         0.000000   
     21. A(C   2,C   0,C  11)          119.0476         0.000000   
     22. A(C   1,C   0,C  11)          122.4658         0.000000   
     23. A(C   1,C   0,C   2)          118.4833         0.000000   
     24. A(C   0,C   1,H   3)          119.9128         0.000000   
     25. A(C   0,C   1,C   5)          120.5897         0.000000   
     26. A(H   3,C   1,C   5)          119.4845         0.000000   
     27. A(C   0,C   2,C   6)          120.9412         0.000000   
     28. A(C   0,C   2,H   4)          119.1194         0.000000   
     29. A(H   4,C   2,C   6)          119.9392         0.000000   
     30. A(H   7,C   5,C   9)          119.9959         0.000000   
     31. A(C   1,C   5,C   9)          120.2860         0.000000   
     32. A(C   1,C   5,H   7)          119.7166         0.000000   
     33. A(H   8,C   6,C   9)          120.1167         0.000000   
     34. A(C   2,C   6,C   9)          119.9468         0.000000   
     35. A(C   2,C   6,H   8)          119.9359         0.000000   
     36. A(C   5,C   9,C   6)          119.7462         0.000000   
     37. A(C   5,C   9,H  10)          120.0634         0.000000   
     38. A(C   6,C   9,H  10)          120.1887         0.000000   
     39. A(C  13,C  11,O  16)           55.4868         0.000000   
     40. A(H  12,C  11,O  16)          105.7651         0.000000   
     41. A(C   0,C  11,O  16)          107.8271         0.000000   
     42. A(H  12,C  11,C  13)          118.3428         0.000000   
     43. A(C   0,C  11,C  13)          126.0048         0.000000   
     44. A(C   0,C  11,H  12)          115.6219         0.000000   
     45. A(H  15,C  13,O  16)           92.0027         0.000000   
     46. A(H  14,C  13,O  16)           92.3515         0.000000   
     47. A(C  11,C  13,O  16)           93.5589         0.000000   
     48. A(H  14,C  13,H  15)          116.4593         0.000000   
     49. A(C  11,C  13,H  15)          120.5613         0.000000   
     50. A(C  11,C  13,H  14)          122.3405         0.000000   
     51. A(C  11,O  16,C  13)           30.9543         0.000000   
     52. D(C   5,C   1,C   0,C   2)      0.8041         0.000000   
     53. D(H   3,C   1,C   0,C  11)      1.4513         0.000000   
     54. D(H   3,C   1,C   0,C   2)   -177.8735         0.000000   
     55. D(C   5,C   1,C   0,C  11)   -179.8711         0.000000   
     56. D(H   4,C   2,C   0,C   1)    179.1643         0.000000   
     57. D(C   6,C   2,C   0,C  11)    179.6941         0.000000   
     58. D(H   4,C   2,C   0,C  11)     -0.1841         0.000000   
     59. D(C   6,C   2,C   0,C   1)     -0.9576         0.000000   
     60. D(C   9,C   5,C   1,H   3)    178.5242         0.000000   
     61. D(C   9,C   5,C   1,C   0)     -0.1590         0.000000   
     62. D(H   7,C   5,C   1,H   3)     -1.0372         0.000000   
     63. D(H   7,C   5,C   1,C   0)   -179.7204         0.000000   
     64. D(H   8,C   6,C   2,H   4)      0.0679         0.000000   
     65. D(C   9,C   6,C   2,C   0)      0.4621         0.000000   
     66. D(H   8,C   6,C   2,C   0)   -179.8092         0.000000   
     67. D(C   9,C   6,C   2,H   4)   -179.6608         0.000000   
     68. D(H  10,C   9,C   6,H   8)      0.0042         0.000000   
     69. D(C   5,C   9,C   6,H   8)   -179.5245         0.000000   
     70. D(C   5,C   9,C   6,C   2)      0.2037         0.000000   
     71. D(H  10,C   9,C   5,H   7)     -0.3230         0.000000   
     72. D(C   6,C   9,C   5,H   7)    179.2062         0.000000   
     73. D(H  10,C   9,C   6,C   2)    179.7323         0.000000   
     74. D(C   6,C   9,C   5,C   1)     -0.3539         0.000000   
     75. D(H  10,C   9,C   5,C   1)   -179.8832         0.000000   
     76. D(O  16,C  11,C   0,C   2)    129.5554         0.000000   
     77. D(O  16,C  11,C   0,C   1)    -49.7657         0.000000   
     78. D(C  13,C  11,C   0,C   2)   -170.5792         0.000000   
     79. D(C  13,C  11,C   0,C   1)     10.0997         0.000000   
     80. D(H  12,C  11,C   0,C   2)     11.4723         0.000000   
     81. D(H  12,C  11,C   0,C   1)   -167.8488         0.000000   
     82. D(H  14,C  13,C  11,C   0)      7.3661         0.000000   
     83. D(O  16,C  13,C  11,H  12)     90.2137         0.000000   
     84. D(O  16,C  13,C  11,C   0)    -87.6846         0.000000   
     85. D(H  15,C  13,C  11,O  16)    -94.4384         0.000000   
     86. D(H  15,C  13,C  11,H  12)     -4.2248         0.000000   
     87. D(H  15,C  13,C  11,C   0)    177.8770         0.000000   
     88. D(H  14,C  13,C  11,O  16)     95.0507         0.000000   
     89. D(H  14,C  13,C  11,H  12)   -174.7357         0.000000   
     90. D(C  11,O  16,C  13,H  15)    120.7924         0.000000   
     91. D(C  11,O  16,C  13,H  14)   -122.6149         0.000000   
     92. D(C  13,O  16,C  11,H  12)   -113.8627         0.000000   
     93. D(C  13,O  16,C  11,C   0)    121.8888         0.000000   
    -----------------------------------------------------------------

Number of atoms                         .... 17
Number of degrees of freedom            .... 93

         *************************************************************
         *                GEOMETRY OPTIMIZATION CYCLE   1            *
         *************************************************************
---------------------------------
CARTESIAN COORDINATES (ANGSTROEM)
---------------------------------
  C     -0.052262   -0.404272   -0.144394
  C      0.255556    0.944018   -0.355006
  C      0.983265   -1.279283    0.192615
  H     -0.533858    1.648691   -0.583281
  H      0.754329   -2.323185    0.371442
  C      1.559724    1.393618   -0.247626
  C      2.290099   -0.830021    0.297244
  H      1.781273    2.440609   -0.409039
  H      3.080199   -1.522701    0.556328
  C      2.582449    0.508282    0.075156
  H      3.600918    0.864176    0.160056
  C     -1.412994   -0.923332   -0.249791
  H     -1.562665   -1.928310    0.131084
  C     -2.480161   -0.256786   -0.733737
  H     -2.391949    0.712219   -1.204117
  H     -3.444868   -0.739859   -0.803037
  O     -2.970818    0.617570    1.179055

----------------------------
CARTESIAN COORDINATES (A.U.)
----------------------------
  NO LB      ZA    FRAG     MASS         X           Y           Z
   0 C     6.0000    0    12.011   -0.098761   -0.763963   -0.272865
   1 C     6.0000    0    12.011    0.482931    1.783935   -0.670864
   2 C     6.0000    0    12.011    1.858102   -2.417495    0.363990
   3 H     1.0000    0     1.008   -1.008845    3.115574   -1.102241
   4 H     1.0000    0     1.008    1.425475   -4.390183    0.701924
   5 C     6.0000    0    12.011    2.947451    2.633556   -0.467945
   6 C     6.0000    0    12.011    4.327660   -1.568512    0.561710
   7 H     1.0000    0     1.008    3.366118    4.612083   -0.772972
   8 H     1.0000    0     1.008    5.820733   -2.877488    1.051308
   9 C     6.0000    0    12.011    4.880121    0.960514    0.142024
  10 H     1.0000    0     1.008    6.804749    1.633056    0.302462
  11 C     6.0000    0    12.011   -2.670172   -1.744845   -0.472037
  12 H     1.0000    0     2.000   -2.953009   -3.643978    0.247713
  13 C     6.0000    0    12.011   -4.686825   -0.485255   -1.386562
  14 H     1.0000    0     2.000   -4.520129    1.345899   -2.275451
  15 H     1.0000    0     2.000   -6.509857   -1.398131   -1.517520
  16 O     8.0000    0    15.999   -5.614032    1.167038    2.228091

--------------------------------
INTERNAL COORDINATES (ANGSTROEM)
--------------------------------
 C      0   0   0     0.000000000000     0.00000000     0.00000000
 C      1   0   0     1.398926466891     0.00000000     0.00000000
 C      1   2   0     1.396973687630   118.48328533     0.00000000
 H      2   1   3     1.082519272785   119.91278231   182.12649955
 H      3   1   2     1.083569182669   119.11941699   179.16425883
 C      2   1   3     1.383663541698   120.58966035     0.80409559
 C      3   1   2     1.385856657754   120.94122593   359.04238365
 H      6   2   1     1.082279201524   119.71662017   180.27962158
 H      7   3   1     1.082214447998   119.93585452   180.19075787
 C      7   3   1     1.387748724392   119.94684341     0.46209239
 H     10   7   3     1.082195755488   120.18873801   179.73233541
 C      1   2   3     1.460179231133   122.46576308   179.32476564
 H     12   1   2     1.085102739076   115.62193693   192.15122134
 C     12   1   2     1.348084829275   126.00482698    10.09968471
 H     14  12   1     1.080744831757   122.34053138     7.36612100
 H     14  12   1     1.081120534065   120.56128266   177.87699297
 O     14  12   1     2.159633288697    93.55892742   272.31543727

---------------------------
INTERNAL COORDINATES (A.U.)
---------------------------
 C      0   0   0     0.000000000000     0.00000000     0.00000000
 C      1   0   0     2.643587903918     0.00000000     0.00000000
 C      1   2   0     2.639897685915   118.48328533     0.00000000
 H      2   1   3     2.045664960254   119.91278231   182.12649955
 H      3   1   2     2.047649002400   119.11941699   179.16425883
 C      2   1   3     2.614745155301   120.58966035     0.80409559
 C      3   1   2     2.618889544026   120.94122593   359.04238365
 H      6   2   1     2.045211291319   119.71662017   180.27962158
 H      7   3   1     2.045088924889   119.93585452   180.19075787
 C      7   3   1     2.622465031800   119.94684341     0.46209239
 H     10   7   3     2.045053601165   120.18873801   179.73233541
 C      1   2   3     2.759338853282   122.46576308   179.32476564
 H     12   1   2     2.050547004021   115.62193693   192.15122134
 C     12   1   2     2.547511132623   126.00482698    10.09968471
 H     14  12   1     2.042311752671   122.34053138     7.36612100
 H     14  12   1     2.043021727142   120.56128266   177.87699297
 O     14  12   1     4.081115465337    93.55892742   272.31543727

---------------------
BASIS SET INFORMATION
---------------------
There are 3 groups of distinct atoms

 Group   1 Type C   : 7s4p1d contracted to 3s2p1d pattern {511/31/1}
 Group   2 Type H   : 4s1p contracted to 2s1p pattern {31/1}
 Group   3 Type O   : 7s4p1d contracted to 3s2p1d pattern {511/31/1}

Atom   0C    basis set group =>   1
Atom   1C    basis set group =>   1
Atom   2C    basis set group =>   1
Atom   3H    basis set group =>   2
Atom   4H    basis set group =>   2
Atom   5C    basis set group =>   1
Atom   6C    basis set group =>   1
Atom   7H    basis set group =>   2
Atom   8H    basis set group =>   2
Atom   9C    basis set group =>   1
Atom  10H    basis set group =>   2
Atom  11C    basis set group =>   1
Atom  12H    basis set group =>   2
Atom  13C    basis set group =>   1
Atom  14H    basis set group =>   2
Atom  15H    basis set group =>   2
Atom  16O    basis set group =>   3
---------------------------------
AUXILIARY/J BASIS SET INFORMATION
---------------------------------
There are 3 groups of distinct atoms

 Group   1 Type C   : 12s5p4d2f1g contracted to 6s4p3d1f1g pattern {711111/2111/211/2/1}
 Group   2 Type H   : 5s2p1d contracted to 3s1p1d pattern {311/2/1}
 Group   3 Type O   : 12s5p4d2f1g contracted to 6s4p3d1f1g pattern {711111/2111/211/2/1}

Atom   0C    basis set group =>   1
Atom   1C    basis set group =>   1
Atom   2C    basis set group =>   1
Atom   3H    basis set group =>   2
Atom   4H    basis set group =>   2
Atom   5C    basis set group =>   1
Atom   6C    basis set group =>   1
Atom   7H    basis set group =>   2
Atom   8H    basis set group =>   2
Atom   9C    basis set group =>   1
Atom  10H    basis set group =>   2
Atom  11C    basis set group =>   1
Atom  12H    basis set group =>   2
Atom  13C    basis set group =>   1
Atom  14H    basis set group =>   2
Atom  15H    basis set group =>   2
Atom  16O    basis set group =>   3


           ************************************************************
           *        Program running with 2 parallel MPI-processes     *
           *              working on a common directory               *
           ************************************************************
------------------------------------------------------------------------------
                           ORCA GTO INTEGRAL CALCULATION
                           -- RI-GTO INTEGRALS CHOSEN --
------------------------------------------------------------------------------
------------------------------------------------------------------------------
                   ___                                                        
                  /   \      - P O W E R E D   B Y -                         
                 /     \                                                     
                 |  |  |   _    _      __       _____    __    __             
                 |  |  |  | |  | |    /  \     |  _  \  |  |  /  |          
                  \  \/   | |  | |   /    \    | | | |  |  | /  /          
                 / \  \   | |__| |  /  /\  \   | |_| |  |  |/  /          
                |  |  |   |  __  | /  /__\  \  |    /   |      \           
                |  |  |   | |  | | |   __   |  |    \   |  |\   \          
                \     /   | |  | | |  |  |  |  | |\  \  |  | \   \       
                 \___/    |_|  |_| |__|  |__|  |_| \__\ |__|  \__/        
                                                                              
                      - O R C A' S   B I G   F R I E N D -                    
                                      &                                       
                       - I N T E G R A L  F E E D E R -                       
                                                                              
 v1 FN, 2020, v2 2021                                                         
------------------------------------------------------------------------------


Reading SHARK input file styreneoxide-TS-term-d3-m062x631d-PM.SHARKINP.tmp ... ok
----------------------
SHARK INTEGRAL PACKAGE
----------------------

Number of atoms                             ...     17
Number of basis functions                   ...    166
Number of shells                            ...     78
Maximum angular momentum                    ...      2
Integral batch strategy                     ... SHARK/LIBINT Hybrid
RI-J (if used) integral strategy            ... SPLIT-RIJ (Revised 2003 algorithm where possible)
Printlevel                                  ...      1
Contraction scheme used                     ... SEGMENTED contraction
Coulomb Range Separation                    ... NOT USED
Exchange Range Separation                   ... NOT USED
Finite Nucleus Model                        ... NOT USED
Auxiliary Coulomb fitting basis             ... AVAILABLE
   # of basis functions in Aux-J            ...    529
   # of shells in Aux-J                     ...    175
   Maximum angular momentum in Aux-J        ...      4
Auxiliary J/K fitting basis                 ... NOT available
Auxiliary Correlation fitting basis         ... NOT available
Auxiliary 'external' fitting basis          ... NOT available
Integral threshold                          ...     2.500000e-11
Primitive cut-off                           ...     2.500000e-12
Primitive pair pre-selection threshold      ...     2.500000e-12

Calculating pre-screening integrals         ... done (  0.1 sec) Dimension = 78
Organizing shell pair data                  ... done (  0.2 sec)
Shell pair information
Total number of shell pairs                 ...      3081
Shell pairs after pre-screening             ...      2829
Total number of primitive shell pairs       ...     11167
Primitive shell pairs kept                  ...      7459
          la=0 lb=0:    871 shell pairs
          la=1 lb=0:   1033 shell pairs
          la=1 lb=1:    323 shell pairs
          la=2 lb=0:    349 shell pairs
          la=2 lb=1:    214 shell pairs
          la=2 lb=2:     39 shell pairs

Calculating one electron integrals          ... done (  0.0 sec)
Calculating RI/J V-Matrix + Cholesky decomp.... done (  0.2 sec)
Calculating Nuclear repulsion               ... done (  0.0 sec) ENN=    386.584683801470 Eh

SHARK setup successfully completed in   0.9 seconds

Maximum memory used throughout the entire GTOINT-calculation: 8.9 MB


           ************************************************************
           *        Program running with 2 parallel MPI-processes     *
           *              working on a common directory               *
           ************************************************************
-------------------------------------------------------------------------------
                                 ORCA SCF
-------------------------------------------------------------------------------

------------
SCF SETTINGS
------------
Hamiltonian:
 Density Functional     Method          .... DFT(GTOs)
 Exchange Functional    Exchange        .... M062X
 Correlation Functional Correlation     .... M062X
 Gradients option       PostSCFGGA      .... off
 Hybrid DFT is turned on
   Fraction HF Exchange ScalHFX         ....  0.540000
   Scaling of DF-GGA-X  ScalDFX         ....  0.460000
   Scaling of DF-GGA-C  ScalDFC         ....  1.000000
   Scaling of DF-LDA-C  ScalLDAC        ....  1.000000
   Perturbative correction              ....  0.000000
   Density functional embedding theory  .... OFF
 RI-approximation to the Coulomb term is turned on
   Number of AuxJ basis functions       .... 529
   RIJ-COSX (HFX calculated with COS-X)).... on


General Settings:
 Integral files         IntName         .... styreneoxide-TS-term-d3-m062x631d-PM
 Hartree-Fock type      HFTyp           .... UHF
 Total Charge           Charge          ....    0
 Multiplicity           Mult            ....    3
 Number of Electrons    NEL             ....   64
 Basis Dimension        Dim             ....  166
 Nuclear Repulsion      ENuc            ....    386.5846838015 Eh

Convergence Acceleration:
 DIIS                   CNVDIIS         .... on
   Start iteration      DIISMaxIt       ....     0
   Startup error        DIISStart       ....  0.200000
   # of expansion vecs  DIISMaxEq       ....     5
   Bias factor          DIISBfac        ....   1.050
   Max. coefficient     DIISMaxC        ....  10.000
 Trust-Rad. Augm. Hess. CNVTRAH         .... auto
   Auto Start mean grad. ratio tolernc. ....  1.125000
   Auto Start start iteration           ....    20
   Auto Start num. interpolation iter.  ....    10
   Max. Number of Micro iterations      ....    16
   Max. Number of Macro iterations      .... Maxiter - #DIIS iter
   Number of Davidson start vectors     ....     2
   Converg. threshold I  (grad. norm)   ....   1.000e-05
   Converg. threshold II (energy diff.) ....   1.000e-08
   Grad. Scal. Fac. for Micro threshold ....   0.100
   Minimum threshold for Micro iter.    ....   0.010
   NR start threshold (gradient norm)   ....   0.001
   Initial trust radius                 ....   0.400
   Minimum AH scaling param. (alpha)    ....   1.000
   Maximum AH scaling param. (alpha)    .... 1000.000
   Orbital update algorithm             .... Taylor
   White noise on init. David. guess    .... on
   Maximum white noise                  ....   0.010
   Quad. conv. algorithm                .... NR
 SOSCF                  CNVSOSCF        .... off
 Level Shifting         CNVShift        .... on
   Level shift para.    LevelShift      ....    0.2500
   Turn off err/grad.   ShiftErr        ....    0.0000
 Zerner damping         CNVZerner       .... off
 Static damping         CNVDamp         .... on
   Fraction old density DampFac         ....    0.8500
   Max. Damping (<1)    DampMax         ....    0.9800
   Min. Damping (>=0)   DampMin         ....    0.0000
   Turn off err/grad.   DampErr         ....    0.0300
 Fernandez-Rico         CNVRico         .... off

SCF Procedure:
 Maximum # iterations   MaxIter         ....   125
 SCF integral mode      SCFMode         .... Direct
   Integral package                     .... SHARK and LIBINT hybrid scheme
 Reset frequency        DirectResetFreq ....    20
 Integral Threshold     Thresh          ....  2.500e-11 Eh
 Primitive CutOff       TCut            ....  2.500e-12 Eh

Convergence Tolerance:
 Convergence Check Mode ConvCheckMode   .... Total+1el-Energy
 Convergence forced     ConvForced      .... 0
 Energy Change          TolE            ....  1.000e-08 Eh
 1-El. energy change                    ....  1.000e-05 Eh
 DIIS Error             TolErr          ....  5.000e-07


Diagonalization of the overlap matrix:
Smallest eigenvalue                        ... 2.849e-04
Time for diagonalization                   ...    0.011 sec
Threshold for overlap eigenvalues          ... 1.000e-08
Number of eigenvalues below threshold      ... 0
Time for construction of square roots      ...    0.118 sec
Total time needed                          ...    0.130 sec

Time for model grid setup =    0.464 sec

------------------------------
INITIAL GUESS: MODEL POTENTIAL
------------------------------
Loading Hartree-Fock densities                     ... done
Calculating cut-offs                               ... done
Initializing the effective Hamiltonian             ... done
Setting up the integral package (SHARK)            ... done
Starting the Coulomb interaction                   ... done (   0.6 sec)
Reading the grid                                   ... done
Mapping shells                                     ... done
Starting the XC term evaluation                    ... done (   0.2 sec)
  promolecular density results
     # of electrons  =     63.999104363
     EX              =    -51.280907463
     EC              =     -2.087895652
     EX+EC           =    -53.368803115
Transforming the Hamiltonian                       ... done (   0.0 sec)
Diagonalizing the Hamiltonian                      ... done (   0.0 sec)
Back transforming the eigenvectors                 ... done (   0.0 sec)
Now organizing SCF variables                       ... done
                      ------------------
                      INITIAL GUESS DONE (   1.3 sec)
                      ------------------
-------------------
DFT GRID GENERATION
-------------------

General Integration Accuracy     IntAcc      ... 4.388
Radial Grid Type                 RadialGrid  ... OptM3 with GC (2021)
Angular Grid (max. ang.)         AngularGrid ... 4 (Lebedev-302)
Angular grid pruning method      GridPruning ... 4 (adaptive)
Weight generation scheme         WeightScheme... Becke
Basis function cutoff            BFCut       ... 1.0000e-11
Integration weight cutoff        WCut        ... 1.0000e-14
Angular grids for H and He will be reduced by one unit
Partially contracted basis set               ... off
Rotationally invariant grid construction     ... off

Total number of grid points                  ...    79955
Total number of batches                      ...     1260
Average number of points per batch           ...       63
Average number of grid points per atom       ...     4703
Time for grid setup =    1.068 sec

--------------------
COSX GRID GENERATION
--------------------

GRIDX 1
-------
General Integration Accuracy     IntAcc      ... 3.816
Radial Grid Type                 RadialGrid  ... OptM3 with GC (2021)
Angular Grid (max. ang.)         AngularGrid ... 1 (Lebedev-50)
Angular grid pruning method      GridPruning ... 4 (adaptive)
Weight generation scheme         WeightScheme... Becke
Basis function cutoff            BFCut       ... 1.0000e-11
Integration weight cutoff        WCut        ... 1.0000e-14
Angular grids for H and He will be reduced by one unit
Partially contracted basis set               ... on
Rotationally invariant grid construction     ... off

Total number of grid points                  ...    10224
Total number of batches                      ...      168
Average number of points per batch           ...       60
Average number of grid points per atom       ...      601
UseSFitting                                  ... on

GRIDX 2
-------
General Integration Accuracy     IntAcc      ... 4.020
Radial Grid Type                 RadialGrid  ... OptM3 with GC (2021)
Angular Grid (max. ang.)         AngularGrid ... 2 (Lebedev-110)
Angular grid pruning method      GridPruning ... 4 (adaptive)
Weight generation scheme         WeightScheme... Becke
Basis function cutoff            BFCut       ... 1.0000e-11
Integration weight cutoff        WCut        ... 1.0000e-14
Angular grids for H and He will be reduced by one unit
Partially contracted basis set               ... on
Rotationally invariant grid construction     ... off

Total number of grid points                  ...    22253
Total number of batches                      ...      357
Average number of points per batch           ...       62
Average number of grid points per atom       ...     1309
UseSFitting                                  ... on

GRIDX 3
-------
General Integration Accuracy     IntAcc      ... 4.338
Radial Grid Type                 RadialGrid  ... OptM3 with GC (2021)
Angular Grid (max. ang.)         AngularGrid ... 3 (Lebedev-194)
Angular grid pruning method      GridPruning ... 4 (adaptive)
Weight generation scheme         WeightScheme... Becke
Basis function cutoff            BFCut       ... 1.0000e-11
Integration weight cutoff        WCut        ... 1.0000e-14
Angular grids for H and He will be reduced by one unit
Partially contracted basis set               ... on
Rotationally invariant grid construction     ... off

Total number of grid points                  ...    48972
Total number of batches                      ...      774
Average number of points per batch           ...       63
Average number of grid points per atom       ...     2881
UseSFitting                                  ... on

Time for X-Grid setup             =    2.154 sec

--------------
SCF ITERATIONS
--------------
ITER       Energy         Delta-E        Max-DP      RMS-DP      [F,P]     Damp
               ***  Starting incremental Fock matrix formation  ***
  0   -384.0774471898   0.000000000000 0.01119387  0.00047822  0.1117665 0.8500
  1   -384.1110291663  -0.033581976483 0.01035805  0.00045250  0.0879505 0.8500
                               ***Turning on DIIS***
  2   -384.1367742882  -0.025745121882 0.00824869  0.00036719  0.0648919 0.8500
  3   -384.1559798805  -0.019205592329 0.00665063  0.00025746  0.0490300 0.8500
  4   -384.1709939650  -0.015014084460 0.00586767  0.00019692  0.0393188 0.8500
  5   -384.1830083076  -0.012014342639 0.00536267  0.00016472  0.0327366 0.8500
  6   -384.1929423263  -0.009934018731 0.03287136  0.00095550  0.0277100 0.0000
  7   -384.2496671185  -0.056724792151 0.00821045  0.00014243  0.0076651 0.0000
  8   -384.2506602380  -0.000993119489 0.00552782  0.00010819  0.0056983 0.0000
  9   -384.2512526270  -0.000592389026 0.00743218  0.00013021  0.0039356 0.0000
 10   -384.2516440101  -0.000391383130 0.00176860  0.00005069  0.0019504 0.0000
 11   -384.2517591987  -0.000115188555 0.00166541  0.00004272  0.0010851 0.0000
 12   -384.2518068876  -0.000047688923 0.00074558  0.00002269  0.0008251 0.0000
               *** Restarting incremental Fock matrix formation ***
                                   *** Resetting DIIS ***
 13   -384.2518571457  -0.000050258115 0.00048190  0.00001769  0.0005009 0.0000
 14   -384.2518634818  -0.000006336029 0.00025859  0.00000735  0.0003761 0.0000
 15   -384.2518667274  -0.000003245647 0.00029129  0.00000839  0.0001904 0.0000
 16   -384.2518698430  -0.000003115622 0.00029570  0.00000779  0.0001551 0.0000
 17   -384.2518722060  -0.000002362981 0.00033335  0.00000738  0.0001434 0.0000
 18   -384.2518739172  -0.000001711191 0.00030858  0.00000583  0.0001324 0.0000
 19   -384.2518749916  -0.000001074455 0.00039887  0.00000625  0.0001216 0.0000
 20   -384.2518758093  -0.000000817634 0.00031256  0.00000435  0.0001047 0.0000
 21   -384.2518762728  -0.000000463541 0.00041769  0.00000495  0.0000925 0.0000
 22   -384.2518766558  -0.000000382936 0.00032661  0.00000365  0.0000726 0.0000
 23   -384.2518768900  -0.000000234239 0.00038684  0.00000401  0.0000597 0.0000
 24   -384.2518770755  -0.000000185452 0.00024201  0.00000263  0.0000496 0.0000
 25   -384.2518771672  -0.000000091750 0.00023996  0.00000255  0.0000381 0.0000
 26   -384.2518772325  -0.000000065341 0.00012675  0.00000151  0.0000291 0.0000
 27   -384.2518772630  -0.000000030508 0.00009781  0.00000112  0.0000217 0.0000
 28   -384.2518772818  -0.000000018703 0.00005879  0.00000066  0.0000201 0.0000
 29   -384.2518772932  -0.000000011400 0.00003319  0.00000043  0.0000189 0.0000
                 **** Energy Check signals convergence ****

               *****************************************************
               *                     SUCCESS                       *
               *           SCF CONVERGED AFTER  30 CYCLES          *
               *****************************************************

Old exchange energy                            =    -28.303719301 Eh
New exchange energy                            =    -28.303588920 Eh
Exchange energy change after final integration =      0.000130381 Eh
Total energy after final integration           =   -384.251746917 Eh
Final COS-X integration done in                =     5.452 sec

----------------
TOTAL SCF ENERGY
----------------

Total Energy       :         -384.25174692 Eh          -10456.02161 eV

Components:
Nuclear Repulsion  :          386.58468380 Eh           10519.50405 eV
Electronic Energy  :         -770.83643072 Eh          -20975.52565 eV
One Electron Energy:        -1285.11906584 Eh          -34969.86762 eV
Two Electron Energy:          514.28263512 Eh           13994.34196 eV
Max COSX asymmetry :            0.00000459 Eh               0.00012 eV

Virial components:
Potential Energy   :         -764.94719725 Eh          -20815.27147 eV
Kinetic Energy     :          380.69545033 Eh           10359.24986 eV
Virial Ratio       :            2.00934158


DFT components:
N(Alpha)           :       33.000002902200 electrons
N(Beta)            :       30.999997571588 electrons
N(Total)           :       64.000000473788 electrons
E(XC)              :      -26.331551811843 Eh       
DFET-embed. en.    :        0.000000000000 Eh       

---------------
SCF CONVERGENCE
---------------

  Last Energy change         ...   -5.6780e-09  Tolerance :   1.0000e-08
  Last MAX-Density change    ...    0.0000e+00  Tolerance :   1.0000e-07
  Last RMS-Density change    ...    0.0000e+00  Tolerance :   5.0000e-09
  Last DIIS Error            ...    1.8555e-05  Tolerance :   5.0000e-07

             **** THE GBW FILE WAS UPDATED (styreneoxide-TS-term-d3-m062x631d-PM.gbw) ****
             **** DENSITY styreneoxide-TS-term-d3-m062x631d-PM.scfp WAS UPDATED ****
             **** ENERGY FILE WAS UPDATED (styreneoxide-TS-term-d3-m062x631d-PM.en.tmp) ****
----------------------
UHF SPIN CONTAMINATION
----------------------

Warning: in a DFT calculation there is little theoretical justification to 
         calculate <S**2> as in Hartree-Fock theory. We will do it anyways
         but you should keep in mind that the values have only limited relevance

Expectation value of <S**2>     :     2.025931
Ideal value S*(S+1) for S=1.0   :     2.000000
Deviation                       :     0.025931

             **** THE GBW FILE WAS UPDATED (styreneoxide-TS-term-d3-m062x631d-PM.gbw) ****
             **** DENSITY styreneoxide-TS-term-d3-m062x631d-PM.scfp WAS UPDATED ****
----------------
ORBITAL ENERGIES
----------------
                 SPIN UP ORBITALS
  NO   OCC          E(Eh)            E(eV) 
   0   1.0000     -19.696858      -535.9788 
   1   1.0000     -10.574991      -287.7601 
   2   1.0000     -10.572821      -287.7011 
   3   1.0000     -10.568696      -287.5888 
   4   1.0000     -10.562649      -287.4243 
   5   1.0000     -10.562528      -287.4210 
   6   1.0000     -10.561989      -287.4063 
   7   1.0000     -10.561020      -287.3800 
   8   1.0000     -10.560753      -287.3727 
   9   1.0000      -1.054517       -28.6949 
  10   1.0000      -0.966745       -26.3065 
  11   1.0000      -0.893506       -24.3135 
  12   1.0000      -0.842668       -22.9302 
  13   1.0000      -0.820722       -22.3330 
  14   1.0000      -0.713448       -19.4139 
  15   1.0000      -0.689886       -18.7727 
  16   1.0000      -0.644550       -17.5391 
  17   1.0000      -0.599050       -16.3010 
  18   1.0000      -0.556095       -15.1321 
  19   1.0000      -0.531670       -14.4675 
  20   1.0000      -0.517510       -14.0822 
  21   1.0000      -0.494989       -13.4693 
  22   1.0000      -0.489513       -13.3203 
  23   1.0000      -0.488532       -13.2936 
  24   1.0000      -0.477556       -12.9950 
  25   1.0000      -0.451751       -12.2928 
  26   1.0000      -0.443412       -12.0658 
  27   1.0000      -0.412708       -11.2304 
  28   1.0000      -0.411175       -11.1887 
  29   1.0000      -0.405120       -11.0239 
  30   1.0000      -0.360198        -9.8015 
  31   1.0000      -0.316826        -8.6213 
  32   1.0000      -0.272673        -7.4198 
  33   0.0000      -0.005377        -0.1463 
  34   0.0000       0.022065         0.6004 
  35   0.0000       0.087490         2.3807 
  36   0.0000       0.100962         2.7473 
  37   0.0000       0.116425         3.1681 
  38   0.0000       0.126002         3.4287 
  39   0.0000       0.154890         4.2148 
  40   0.0000       0.159523         4.3408 
  41   0.0000       0.185215         5.0400 
  42   0.0000       0.206570         5.6211 
  43   0.0000       0.214554         5.8383 
  44   0.0000       0.228188         6.2093 
  45   0.0000       0.294054         8.0016 
  46   0.0000       0.311271         8.4701 
  47   0.0000       0.327218         8.9040 
  48   0.0000       0.345780         9.4092 
  49   0.0000       0.353901         9.6301 
  50   0.0000       0.380585        10.3562 
  51   0.0000       0.411896        11.2083 
  52   0.0000       0.425687        11.5835 
  53   0.0000       0.431689        11.7468 
  54   0.0000       0.453695        12.3457 
  55   0.0000       0.473189        12.8761 
  56   0.0000       0.480919        13.0865 
  57   0.0000       0.508026        13.8241 
  58   0.0000       0.524539        14.2734 
  59   0.0000       0.536577        14.6010 
  60   0.0000       0.542236        14.7550 
  61   0.0000       0.558529        15.1984 
  62   0.0000       0.568049        15.4574 
  63   0.0000       0.586958        15.9719 
  64   0.0000       0.594234        16.1699 
  65   0.0000       0.634341        17.2613 
  66   0.0000       0.645500        17.5649 
  67   0.0000       0.683722        18.6050 
  68   0.0000       0.695043        18.9131 
  69   0.0000       0.698797        19.0152 
  70   0.0000       0.703788        19.1510 
  71   0.0000       0.713090        19.4042 
  72   0.0000       0.724903        19.7256 
  73   0.0000       0.733844        19.9689 
  74   0.0000       0.740953        20.1624 
  75   0.0000       0.747541        20.3416 
  76   0.0000       0.763428        20.7739 
  77   0.0000       0.778635        21.1877 
  78   0.0000       0.790876        21.5208 
  79   0.0000       0.804461        21.8905 
  80   0.0000       0.834733        22.7142 
  81   0.0000       0.843695        22.9581 
  82   0.0000       0.862840        23.4791 
  83   0.0000       0.896959        24.4075 
  84   0.0000       0.912213        24.8226 
  85   0.0000       0.943636        25.6777 
  86   0.0000       0.976699        26.5773 
  87   0.0000       0.986931        26.8558 
  88   0.0000       1.074929        29.2503 
  89   0.0000       1.094857        29.7926 
  90   0.0000       1.113091        30.2887 
  91   0.0000       1.134117        30.8609 
  92   0.0000       1.196058        32.5464 
  93   0.0000       1.249750        34.0074 
  94   0.0000       1.272543        34.6277 
  95   0.0000       1.297110        35.2961 
  96   0.0000       1.302210        35.4349 
  97   0.0000       1.307603        35.5817 
  98   0.0000       1.312194        35.7066 
  99   0.0000       1.322301        35.9816 
 100   0.0000       1.353436        36.8289 
 101   0.0000       1.366784        37.1921 
 102   0.0000       1.392269        37.8856 
 103   0.0000       1.462785        39.8044 
 104   0.0000       1.543217        41.9931 
 105   0.0000       1.666287        45.3420 
 106   0.0000       1.683742        45.8170 
 107   0.0000       1.701183        46.2915 
 108   0.0000       1.710361        46.5413 
 109   0.0000       1.736499        47.2525 
 110   0.0000       1.749925        47.6179 
 111   0.0000       1.770355        48.1738 
 112   0.0000       1.771447        48.2035 
 113   0.0000       1.796215        48.8775 
 114   0.0000       1.807326        49.1798 
 115   0.0000       1.808352        49.2078 
 116   0.0000       1.830130        49.8004 
 117   0.0000       1.833998        49.9056 
 118   0.0000       1.849932        50.3392 
 119   0.0000       1.878079        51.1051 
 120   0.0000       1.910238        51.9802 
 121   0.0000       1.959028        53.3079 
 122   0.0000       1.983350        53.9697 
 123   0.0000       1.992233        54.2114 
 124   0.0000       2.014430        54.8154 
 125   0.0000       2.017436        54.8972 
 126   0.0000       2.030257        55.2461 
 127   0.0000       2.068964        56.2994 
 128   0.0000       2.131015        57.9879 
 129   0.0000       2.137361        58.1606 
 130   0.0000       2.143564        58.3293 
 131   0.0000       2.169687        59.0402 
 132   0.0000       2.179470        59.3064 
 133   0.0000       2.249068        61.2003 
 134   0.0000       2.279091        62.0172 
 135   0.0000       2.294439        62.4349 
 136   0.0000       2.307186        62.7817 
 137   0.0000       2.335494        63.5520 
 138   0.0000       2.363357        64.3102 
 139   0.0000       2.378249        64.7154 
 140   0.0000       2.418188        65.8022 
 141   0.0000       2.431593        66.1670 
 142   0.0000       2.492705        67.8299 
 143   0.0000       2.582307        70.2681 
 144   0.0000       2.606710        70.9322 
 145   0.0000       2.623062        71.3771 
 146   0.0000       2.637499        71.7700 
 147   0.0000       2.642058        71.8940 
 148   0.0000       2.665982        72.5451 
 149   0.0000       2.667441        72.5848 
 150   0.0000       2.684209        73.0410 
 151   0.0000       2.709857        73.7390 
 152   0.0000       2.743194        74.6461 
 153   0.0000       2.763372        75.1952 
 154   0.0000       2.770212        75.3813 
 155   0.0000       2.790543        75.9345 
 156   0.0000       2.811492        76.5046 
 157   0.0000       2.887040        78.5603 
 158   0.0000       2.902779        78.9886 
 159   0.0000       2.932694        79.8027 
 160   0.0000       3.030970        82.4769 
 161   0.0000       3.089640        84.0734 
 162   0.0000       3.166766        86.1721 
 163   0.0000       3.239110        88.1407 
 164   0.0000       3.387836        92.1877 
 165   0.0000       3.669382        99.8490 

                 SPIN DOWN ORBITALS
  NO   OCC          E(Eh)            E(eV) 
   0   1.0000     -19.662063      -535.0319 
   1   1.0000     -10.573604      -287.7224 
   2   1.0000     -10.572691      -287.6976 
   3   1.0000     -10.569095      -287.5997 
   4   1.0000     -10.562368      -287.4166 
   5   1.0000     -10.562277      -287.4142 
   6   1.0000     -10.561776      -287.4005 
   7   1.0000     -10.561121      -287.3827 
   8   1.0000     -10.560814      -287.3744 
   9   1.0000      -0.966402       -26.2971 
  10   1.0000      -0.912892       -24.8411 
  11   1.0000      -0.878236       -23.8980 
  12   1.0000      -0.842042       -22.9131 
  13   1.0000      -0.815821       -22.1996 
  14   1.0000      -0.711308       -19.3557 
  15   1.0000      -0.689235       -18.7550 
  16   1.0000      -0.642845       -17.4927 
  17   1.0000      -0.597233       -16.2515 
  18   1.0000      -0.553395       -15.0586 
  19   1.0000      -0.530427       -14.4337 
  20   1.0000      -0.515517       -14.0279 
  21   1.0000      -0.494418       -13.4538 
  22   1.0000      -0.486156       -13.2290 
  23   1.0000      -0.454247       -12.3607 
  24   1.0000      -0.444131       -12.0854 
  25   1.0000      -0.411338       -11.1931 
  26   1.0000      -0.404916       -11.0183 
  27   1.0000      -0.371802       -10.1172 
  28   1.0000      -0.344402        -9.3716 
  29   1.0000      -0.315012        -8.5719 
  30   1.0000      -0.294059        -8.0018 
  31   0.0000      -0.062747        -1.7074 
  32   0.0000      -0.038559        -1.0492 
  33   0.0000       0.014244         0.3876 
  34   0.0000       0.024462         0.6656 
  35   0.0000       0.098340         2.6760 
  36   0.0000       0.101264         2.7555 
  37   0.0000       0.117513         3.1977 
  38   0.0000       0.125779         3.4226 
  39   0.0000       0.155135         4.2214 
  40   0.0000       0.159908         4.3513 
  41   0.0000       0.185404         5.0451 
  42   0.0000       0.207634         5.6500 
  43   0.0000       0.216025         5.8783 
  44   0.0000       0.228789         6.2257 
  45   0.0000       0.295343         8.0367 
  46   0.0000       0.312684         8.5086 
  47   0.0000       0.327819         8.9204 
  48   0.0000       0.346376         9.4254 
  49   0.0000       0.355149         9.6641 
  50   0.0000       0.382106        10.3976 
  51   0.0000       0.416436        11.3318 
  52   0.0000       0.426740        11.6122 
  53   0.0000       0.434010        11.8100 
  54   0.0000       0.454247        12.3607 
  55   0.0000       0.476363        12.9625 
  56   0.0000       0.483364        13.1530 
  57   0.0000       0.511754        13.9255 
  58   0.0000       0.525920        14.3110 
  59   0.0000       0.537481        14.6256 
  60   0.0000       0.545274        14.8377 
  61   0.0000       0.561826        15.2881 
  62   0.0000       0.570773        15.5315 
  63   0.0000       0.588110        16.0033 
  64   0.0000       0.596718        16.2375 
  65   0.0000       0.639596        17.4043 
  66   0.0000       0.651848        17.7377 
  67   0.0000       0.685342        18.6491 
  68   0.0000       0.695939        18.9375 
  69   0.0000       0.704018        19.1573 
  70   0.0000       0.705605        19.2005 
  71   0.0000       0.715570        19.4716 
  72   0.0000       0.726778        19.7766 
  73   0.0000       0.734868        19.9968 
  74   0.0000       0.741046        20.1649 
  75   0.0000       0.750449        20.4208 
  76   0.0000       0.764164        20.7940 
  77   0.0000       0.779607        21.2142 
  78   0.0000       0.793337        21.5878 
  79   0.0000       0.806517        21.9464 
  80   0.0000       0.835620        22.7384 
  81   0.0000       0.846651        23.0386 
  82   0.0000       0.865756        23.5584 
  83   0.0000       0.908527        24.7223 
  84   0.0000       0.920108        25.0374 
  85   0.0000       0.987131        26.8612 
  86   0.0000       0.999746        27.2045 
  87   0.0000       1.025905        27.9163 
  88   0.0000       1.096037        29.8247 
  89   0.0000       1.107311        30.1315 
  90   0.0000       1.117755        30.4157 
  91   0.0000       1.140821        31.0433 
  92   0.0000       1.203281        32.7429 
  93   0.0000       1.250749        34.0346 
  94   0.0000       1.283554        34.9273 
  95   0.0000       1.299279        35.3552 
  96   0.0000       1.306293        35.5461 
  97   0.0000       1.310916        35.6718 
  98   0.0000       1.317108        35.8403 
  99   0.0000       1.324007        36.0281 
 100   0.0000       1.354952        36.8701 
 101   0.0000       1.369542        37.2671 
 102   0.0000       1.402333        38.1594 
 103   0.0000       1.491377        40.5824 
 104   0.0000       1.544117        42.0175 
 105   0.0000       1.666521        45.3483 
 106   0.0000       1.686960        45.9045 
 107   0.0000       1.702976        46.3403 
 108   0.0000       1.711938        46.5842 
 109   0.0000       1.738106        47.2963 
 110   0.0000       1.752919        47.6994 
 111   0.0000       1.771672        48.2096 
 112   0.0000       1.772635        48.2358 
 113   0.0000       1.797170        48.9035 
 114   0.0000       1.807902        49.1955 
 115   0.0000       1.810002        49.2526 
 116   0.0000       1.833043        49.8796 
 117   0.0000       1.835684        49.9515 
 118   0.0000       1.852308        50.4039 
 119   0.0000       1.880922        51.1825 
 120   0.0000       1.911729        52.0208 
 121   0.0000       1.963156        53.4202 
 122   0.0000       1.985222        54.0207 
 123   0.0000       1.993708        54.2516 
 124   0.0000       2.015632        54.8481 
 125   0.0000       2.021102        54.9970 
 126   0.0000       2.031034        55.2673 
 127   0.0000       2.073785        56.4306 
 128   0.0000       2.131881        58.0114 
 129   0.0000       2.140389        58.2430 
 130   0.0000       2.144969        58.3676 
 131   0.0000       2.170441        59.0607 
 132   0.0000       2.180295        59.3289 
 133   0.0000       2.249664        61.2165 
 134   0.0000       2.278887        62.0117 
 135   0.0000       2.295834        62.4728 
 136   0.0000       2.310484        62.8715 
 137   0.0000       2.337310        63.6014 
 138   0.0000       2.365535        64.3695 
 139   0.0000       2.379623        64.7528 
 140   0.0000       2.420938        65.8771 
 141   0.0000       2.435199        66.2651 
 142   0.0000       2.498041        67.9752 
 143   0.0000       2.592566        70.5473 
 144   0.0000       2.610720        71.0413 
 145   0.0000       2.631012        71.5935 
 146   0.0000       2.646785        72.0227 
 147   0.0000       2.686726        73.1095 
 148   0.0000       2.729711        74.2792 
 149   0.0000       2.738388        74.5153 
 150   0.0000       2.749655        74.8219 
 151   0.0000       2.759091        75.0787 
 152   0.0000       2.763126        75.1885 
 153   0.0000       2.770437        75.3874 
 154   0.0000       2.799773        76.1857 
 155   0.0000       2.827859        76.9500 
 156   0.0000       2.868814        78.0644 
 157   0.0000       2.889546        78.6286 
 158   0.0000       2.905606        79.0656 
 159   0.0000       2.939078        79.9764 
 160   0.0000       3.033517        82.5462 
 161   0.0000       3.092658        84.1555 
 162   0.0000       3.168993        86.2327 
 163   0.0000       3.242860        88.2427 
 164   0.0000       3.393985        92.3550 
 165   0.0000       3.672203        99.9257 

                    ********************************
                    * MULLIKEN POPULATION ANALYSIS *
                    ********************************

--------------------------------------------
MULLIKEN ATOMIC CHARGES AND SPIN POPULATIONS
--------------------------------------------
   0 C :    0.044605   -0.058014
   1 C :   -0.034701    0.051689
   2 C :   -0.039491    0.051177
   3 H :    0.006897   -0.003352
   4 H :    0.008847   -0.002268
   5 C :   -0.005783   -0.024409
   6 C :   -0.005580   -0.025494
   7 H :    0.016684    0.000750
   8 H :    0.017760    0.000809
   9 C :   -0.007646    0.052239
  10 H :    0.019034   -0.002431
  11 C :   -0.033445    0.279912
  12 H :    0.026396   -0.013432
  13 C :   -0.013607   -0.125135
  14 H :    0.060373    0.009483
  15 H :    0.059201    0.009970
  16 O :   -0.119542    1.798507
Sum of atomic charges         :    0.0000000
Sum of atomic spin populations:    2.0000000

-----------------------------------------------------
MULLIKEN REDUCED ORBITAL CHARGES AND SPIN POPULATIONS
-----------------------------------------------------
CHARGE
  0 C s       :     3.006807  s :     3.006807
      pz      :     0.989515  p :     2.908370
      px      :     0.945825
      py      :     0.973030
      dz2     :     0.003570  d :     0.040219
      dxz     :     0.005899
      dyz     :     0.006312
      dx2y2   :     0.011899
      dxy     :     0.012538
  1 C s       :     3.187951  s :     3.187951
      pz      :     0.974329  p :     2.814091
      px      :     0.893141
      py      :     0.946622
      dz2     :     0.002468  d :     0.032659
      dxz     :     0.004575
      dyz     :     0.004543
      dx2y2   :     0.009752
      dxy     :     0.011320
  2 C s       :     3.207940  s :     3.207940
      pz      :     0.979960  p :     2.798807
      px      :     0.954676
      py      :     0.864170
      dz2     :     0.002757  d :     0.032744
      dxz     :     0.006469
      dyz     :     0.002660
      dx2y2   :     0.010778
      dxy     :     0.010081
  3 H s       :     0.970790  s :     0.970790
      pz      :     0.004391  p :     0.022313
      px      :     0.009695
      py      :     0.008227
  4 H s       :     0.968921  s :     0.968921
      pz      :     0.004169  p :     0.022232
      px      :     0.003313
      py      :     0.014750
  5 C s       :     3.151264  s :     3.151264
      pz      :     0.978630  p :     2.820948
      px      :     0.969604
      py      :     0.872713
      dz2     :     0.002711  d :     0.033571
      dxz     :     0.006475
      dyz     :     0.002835
      dx2y2   :     0.011459
      dxy     :     0.010091
  6 C s       :     3.149901  s :     3.149901
      pz      :     0.977352  p :     2.822227
      px      :     0.917615
      py      :     0.927261
      dz2     :     0.002456  d :     0.033452
      dxz     :     0.004628
      dyz     :     0.004869
      dx2y2   :     0.009861
      dxy     :     0.011639
  7 H s       :     0.961004  s :     0.961004
      pz      :     0.004050  p :     0.022313
      px      :     0.003390
      py      :     0.014873
  8 H s       :     0.959932  s :     0.959932
      pz      :     0.004537  p :     0.022307
      px      :     0.009677
      py      :     0.008094
  9 C s       :     3.153587  s :     3.153587
      pz      :     0.978924  p :     2.820673
      px      :     0.882416
      py      :     0.959333
      dz2     :     0.002880  d :     0.033386
      dxz     :     0.003107
      dyz     :     0.005955
      dx2y2   :     0.010920
      dxy     :     0.010524
 10 H s       :     0.958724  s :     0.958724
      pz      :     0.003875  p :     0.022242
      px      :     0.014210
      py      :     0.004158
 11 C s       :     3.164423  s :     3.164423
      pz      :     0.952825  p :     2.835495
      px      :     0.950967
      py      :     0.931702
      dz2     :     0.003381  d :     0.033527
      dxz     :     0.007050
      dyz     :     0.003318
      dx2y2   :     0.011179
      dxy     :     0.008599
 12 H s       :     0.951507  s :     0.951507
      pz      :     0.005161  p :     0.022097
      px      :     0.003074
      py      :     0.013862
 13 C s       :     3.104418  s :     3.104418
      pz      :     0.954290  p :     2.882255
      px      :     0.971827
      py      :     0.956139
      dz2     :     0.002970  d :     0.026934
      dxz     :     0.004281
      dyz     :     0.003946
      dx2y2   :     0.008100
      dxy     :     0.007637
 14 H s       :     0.916676  s :     0.916676
      pz      :     0.005671  p :     0.022951
      px      :     0.003661
      py      :     0.013618
 15 H s       :     0.917810  s :     0.917810
      pz      :     0.003612  p :     0.022988
      px      :     0.013348
      py      :     0.006029
 16 O s       :     3.985176  s :     3.985176
      pz      :     1.483726  p :     4.133547
      px      :     1.334889
      py      :     1.314932
      dz2     :     0.000237  d :     0.000819
      dxz     :     0.000163
      dyz     :     0.000262
      dx2y2   :     0.000017
      dxy     :     0.000140

SPIN
  0 C s       :    -0.009437  s :    -0.009437
      pz      :    -0.030949  p :    -0.050407
      px      :    -0.014170
      py      :    -0.005289
      dz2     :     0.000020  d :     0.001830
      dxz     :     0.001264
      dyz     :     0.000282
      dx2y2   :     0.000174
      dxy     :     0.000091
  1 C s       :     0.005989  s :     0.005989
      pz      :     0.036089  p :     0.045963
      px      :     0.003820
      py      :     0.006055
      dz2     :     0.000033  d :    -0.000263
      dxz     :    -0.000102
      dyz     :    -0.000125
      dx2y2   :    -0.000031
      dxy     :    -0.000038
  2 C s       :     0.006562  s :     0.006562
      pz      :     0.039251  p :     0.044887
      px      :     0.002734
      py      :     0.002902
      dz2     :     0.000008  d :    -0.000272
      dxz     :    -0.000208
      dyz     :    -0.000003
      dx2y2   :    -0.000049
      dxy     :    -0.000021
  3 H s       :    -0.003552  s :    -0.003552
      pz      :     0.000201  p :     0.000200
      px      :    -0.000008
      py      :     0.000007
  4 H s       :    -0.002462  s :    -0.002462
      pz      :     0.000183  p :     0.000194
      px      :     0.000013
      py      :    -0.000002
  5 C s       :    -0.004259  s :    -0.004259
      pz      :    -0.014998  p :    -0.020747
      px      :    -0.003584
      py      :    -0.002165
      dz2     :     0.000036  d :     0.000597
      dxz     :     0.000518
      dyz     :     0.000030
      dx2y2   :    -0.000001
      dxy     :     0.000014
  6 C s       :    -0.004409  s :    -0.004409
      pz      :    -0.015979  p :    -0.021697
      px      :    -0.002695
      py      :    -0.003023
      dz2     :    -0.000012  d :     0.000612
      dxz     :     0.000303
      dyz     :     0.000299
      dx2y2   :     0.000023
      dxy     :    -0.000002
  7 H s       :     0.000835  s :     0.000835
      pz      :    -0.000078  p :    -0.000084
      px      :    -0.000011
      py      :     0.000004
  8 H s       :     0.000894  s :     0.000894
      pz      :    -0.000080  p :    -0.000086
      px      :    -0.000002
      py      :    -0.000004
  9 C s       :     0.005866  s :     0.005866
      pz      :     0.039290  p :     0.046527
      px      :     0.003166
      py      :     0.004072
      dz2     :     0.000013  d :    -0.000155
      dxz     :    -0.000040
      dyz     :    -0.000091
      dx2y2   :    -0.000016
      dxy     :    -0.000021
 10 H s       :    -0.002667  s :    -0.002667
      pz      :     0.000230  p :     0.000236
      px      :    -0.000005
      py      :     0.000011
 11 C s       :     0.027306  s :     0.027306
      pz      :     0.182992  p :     0.253269
      px      :     0.031054
      py      :     0.039223
      dz2     :     0.000249  d :    -0.000663
      dxz     :    -0.000563
      dyz     :    -0.000119
      dx2y2   :    -0.000089
      dxy     :    -0.000141
 12 H s       :    -0.014719  s :    -0.014719
      pz      :     0.000993  p :     0.001286
      px      :     0.000085
      py      :     0.000208
 13 C s       :    -0.019308  s :    -0.019308
      pz      :    -0.077063  p :    -0.108396
      px      :    -0.011726
      py      :    -0.019606
      dz2     :    -0.000095  d :     0.002569
      dxz     :     0.001276
      dyz     :     0.000943
      dx2y2   :    -0.000018
      dxy     :     0.000463
 14 H s       :     0.009968  s :     0.009968
      pz      :    -0.000346  p :    -0.000486
      px      :    -0.000050
      py      :    -0.000090
 15 H s       :     0.010425  s :     0.010425
      pz      :    -0.000431  p :    -0.000455
      px      :     0.000049
      py      :    -0.000073
 16 O s       :     0.001836  s :     0.001836
      pz      :     0.463588  p :     1.796595
      px      :     0.656255
      py      :     0.676752
      dz2     :    -0.000028  d :     0.000075
      dxz     :     0.000044
      dyz     :    -0.000001
      dx2y2   :     0.000002
      dxy     :     0.000059


                     *******************************
                     * LOEWDIN POPULATION ANALYSIS *
                     *******************************

-------------------------------------------
LOEWDIN ATOMIC CHARGES AND SPIN POPULATIONS
-------------------------------------------
   0 C :   -0.037516   -0.030201
   1 C :   -0.014016    0.038728
   2 C :   -0.017353    0.039141
   3 H :    0.031022   -0.000289
   4 H :    0.031312   -0.000360
   5 C :   -0.024950   -0.014253
   6 C :   -0.027566   -0.015198
   7 H :    0.033466    0.000002
   8 H :    0.033380   -0.000012
   9 C :   -0.024254    0.040509
  10 H :    0.032649   -0.000159
  11 C :   -0.005403    0.223240
  12 H :    0.034574   -0.001387
  13 C :   -0.011714   -0.072220
  14 H :    0.028627    0.003084
  15 H :    0.034668    0.003975
  16 O :   -0.096926    1.785402

----------------------------------------------------
LOEWDIN REDUCED ORBITAL CHARGES AND SPIN POPULATIONS
----------------------------------------------------
CHARGE
  0 C s       :     2.840324  s :     2.840324
      pz      :     0.971067  p :     3.087786
      px      :     1.040709
      py      :     1.076010
      dz2     :     0.008489  d :     0.109406
      dxz     :     0.012823
      dyz     :     0.014380
      dx2y2   :     0.035878
      dxy     :     0.037836
  1 C s       :     2.851394  s :     2.851394
      pz      :     0.968255  p :     3.073150
      px      :     1.055409
      py      :     1.049486
      dz2     :     0.005967  d :     0.089472
      dxz     :     0.009730
      dyz     :     0.009999
      dx2y2   :     0.029265
      dxy     :     0.034511
  2 C s       :     2.854089  s :     2.854089
      pz      :     0.971478  p :     3.073348
      px      :     1.063038
      py      :     1.038832
      dz2     :     0.006537  d :     0.089916
      dxz     :     0.014673
      dyz     :     0.005507
      dx2y2   :     0.033019
      dxy     :     0.030180
  3 H s       :     0.899984  s :     0.899984
      pz      :     0.015261  p :     0.068994
      px      :     0.028581
      py      :     0.025152
  4 H s       :     0.900506  s :     0.900506
      pz      :     0.014751  p :     0.068183
      px      :     0.012574
      py      :     0.040857
  5 C s       :     2.852765  s :     2.852765
      pz      :     0.968633  p :     3.080850
      px      :     1.069099
      py      :     1.043117
      dz2     :     0.006579  d :     0.091335
      dxz     :     0.014744
      dyz     :     0.005664
      dx2y2   :     0.034090
      dxy     :     0.030259
  6 C s       :     2.852879  s :     2.852879
      pz      :     0.969944  p :     3.083534
      px      :     1.055860
      py      :     1.057730
      dz2     :     0.006031  d :     0.091153
      dxz     :     0.010116
      dyz     :     0.010754
      dx2y2   :     0.029601
      dxy     :     0.034651
  7 H s       :     0.898720  s :     0.898720
      pz      :     0.014338  p :     0.067814
      px      :     0.012665
      py      :     0.040810
  8 H s       :     0.898716  s :     0.898716
      pz      :     0.015487  p :     0.067905
      px      :     0.028088
      py      :     0.024330
  9 C s       :     2.855041  s :     2.855041
      pz      :     0.967220  p :     3.078726
      px      :     1.045481
      py      :     1.066025
      dz2     :     0.006912  d :     0.090488
      dxz     :     0.006310
      dyz     :     0.013620
      dx2y2   :     0.032361
      dxy     :     0.031285
 10 H s       :     0.899193  s :     0.899193
      pz      :     0.014002  p :     0.068158
      px      :     0.039230
      py      :     0.014925
 11 C s       :     2.869495  s :     2.869495
      pz      :     0.957013  p :     3.045600
      px      :     1.048559
      py      :     1.040028
      dz2     :     0.007857  d :     0.090308
      dxz     :     0.016507
      dyz     :     0.008272
      dx2y2   :     0.032816
      dxy     :     0.024856
 12 H s       :     0.897471  s :     0.897471
      pz      :     0.017424  p :     0.067954
      px      :     0.011559
      py      :     0.038972
 13 C s       :     2.887574  s :     2.887574
      pz      :     0.950392  p :     3.052353
      px      :     1.060365
      py      :     1.041596
      dz2     :     0.006862  d :     0.071787
      dxz     :     0.009975
      dyz     :     0.010681
      dx2y2   :     0.023080
      dxy     :     0.021189
 14 H s       :     0.900987  s :     0.900987
      pz      :     0.019306  p :     0.070385
      px      :     0.011965
      py      :     0.039114
 15 H s       :     0.895451  s :     0.895451
      pz      :     0.013913  p :     0.069881
      px      :     0.037240
      py      :     0.018728
 16 O s       :     3.954136  s :     3.954136
      pz      :     1.491138  p :     4.141783
      px      :     1.334797
      py      :     1.315848
      dz2     :     0.000299  d :     0.001007
      dxz     :     0.000190
      dyz     :     0.000338
      dx2y2   :     0.000016
      dxy     :     0.000165

SPIN
  0 C s       :    -0.002098  s :    -0.002098
      pz      :    -0.024347  p :    -0.033075
      px      :    -0.005698
      py      :    -0.003029
      dz2     :     0.000177  d :     0.004971
      dxz     :     0.002755
      dyz     :     0.000691
      dx2y2   :     0.000729
      dxy     :     0.000620
  1 C s       :     0.001093  s :     0.001093
      pz      :     0.033907  p :     0.038559
      px      :     0.002329
      py      :     0.002324
      dz2     :    -0.000010  d :    -0.000925
      dxz     :    -0.000235
      dyz     :    -0.000342
      dx2y2   :    -0.000149
      dxy     :    -0.000189
  2 C s       :     0.001095  s :     0.001095
      pz      :     0.034736  p :     0.039022
      px      :     0.001909
      py      :     0.002377
      dz2     :    -0.000050  d :    -0.000976
      dxz     :    -0.000512
      dyz     :    -0.000076
      dx2y2   :    -0.000198
      dxy     :    -0.000140
  3 H s       :    -0.001338  s :    -0.001338
      pz      :     0.000806  p :     0.001049
      px      :     0.000121
      py      :     0.000122
  4 H s       :    -0.001348  s :    -0.001348
      pz      :     0.000776  p :     0.000987
      px      :     0.000051
      py      :     0.000160
  5 C s       :    -0.000686  s :    -0.000686
      pz      :    -0.012531  p :    -0.015185
      px      :    -0.001549
      py      :    -0.001105
      dz2     :     0.000150  d :     0.001618
      dxz     :     0.001172
      dyz     :     0.000081
      dx2y2   :     0.000082
      dxy     :     0.000133
  6 C s       :    -0.000713  s :    -0.000713
      pz      :    -0.013259  p :    -0.016128
      px      :    -0.001300
      py      :    -0.001569
      dz2     :     0.000030  d :     0.001643
      dxz     :     0.000689
      dyz     :     0.000696
      dx2y2   :     0.000156
      dxy     :     0.000073
  7 H s       :     0.000420  s :     0.000420
      pz      :    -0.000312  p :    -0.000418
      px      :    -0.000044
      py      :    -0.000063
  8 H s       :     0.000438  s :     0.000438
      pz      :    -0.000333  p :    -0.000451
      px      :    -0.000060
      py      :    -0.000058
  9 C s       :     0.000940  s :     0.000940
      pz      :     0.035427  p :     0.040166
      px      :     0.002011
      py      :     0.002727
      dz2     :    -0.000052  d :    -0.000597
      dxz     :    -0.000096
      dyz     :    -0.000239
      dx2y2   :    -0.000102
      dxy     :    -0.000108
 10 H s       :    -0.001315  s :    -0.001315
      pz      :     0.000915  p :     0.001156
      px      :     0.000163
      py      :     0.000078
 11 C s       :     0.006202  s :     0.006202
      pz      :     0.164844  p :     0.219667
      px      :     0.018520
      py      :     0.036303
      dz2     :     0.000149  d :    -0.002630
      dxz     :    -0.001427
      dyz     :    -0.000358
      dx2y2   :    -0.000412
      dxy     :    -0.000582
 12 H s       :    -0.007502  s :    -0.007502
      pz      :     0.003896  p :     0.006115
      px      :     0.000520
      py      :     0.001699
 13 C s       :     0.000078  s :     0.000078
      pz      :    -0.058712  p :    -0.078962
      px      :    -0.006462
      py      :    -0.013788
      dz2     :     0.000153  d :     0.006664
[...]
     26       0.015138  -0.004818   0.045886   0.010899  -0.020597  -0.040945
     27       0.004901   0.066136  -0.061005   0.075123   0.100481   0.113793
     28      -0.011952  -0.213653   0.101830   0.087709  -0.034727  -0.358904
     29       0.003164   0.057688  -0.032253  -0.006754   0.024099   0.095776
     30       0.053012  -0.153180   0.142999   0.175344   0.053347  -0.138764
     31      -0.157755   0.470054  -0.553919  -0.146768   0.177883   0.423576
     32       0.045216  -0.138070   0.150056   0.062212  -0.030050  -0.119865
     33       0.034511  -0.000612  -0.101885   0.134760  -0.388616   0.048682
     34       0.037785   0.007476   0.005134  -0.075469   0.084115  -0.038840
     35      -0.001549  -0.002184  -0.025779   0.050475  -0.108496   0.019997
     36       0.047635   0.022492   0.004626  -0.096917   0.152685  -0.071559
     37       0.044490   0.008362   0.008799  -0.102845   0.098482  -0.050590
     38      -0.006144   0.002872   0.000167   0.012770  -0.001615   0.003070
     39      -0.014770  -0.006261   0.073245  -0.105790   0.200174  -0.017906
     40      -0.008884  -0.002236  -0.030725   0.060888  -0.101680   0.017401
     41      -0.003503   0.000676   0.038358  -0.056206   0.120162  -0.014063
     42       0.004937   0.021713  -0.050805   0.058835  -0.135754   0.001150
     43      -0.008094  -0.003944  -0.065524   0.122673  -0.235067   0.040810
     44       0.003094   0.007050   0.002124  -0.022856   0.020517  -0.014939
     45      -0.032568  -0.006324   0.074066  -0.096046   0.210896  -0.016415
     46       0.015273  -0.005695   0.049175  -0.093809   0.155481  -0.021601
     47      -0.009611   0.000612  -0.010672   0.022703  -0.042185   0.007872
     48      -0.000153   0.000408   0.001695  -0.002294   0.005700  -0.000825
     49       0.000435  -0.000467  -0.002279   0.003140  -0.008250   0.001103
     50       0.001119  -0.001199  -0.006369   0.008476  -0.022502   0.002879
                 42         43         44         45         46         47    
      0      -0.190901   0.002431   0.009059  -0.001497   0.002710   0.000711
      1      -0.073634   0.001107   0.007776   0.001586  -0.001211  -0.001638
      2      -0.015103   0.000319  -0.000578  -0.000739   0.000733   0.000486
      3       0.272435   0.000610   0.001311   0.000378   0.004467  -0.021311
      4       0.181253   0.001677  -0.000861  -0.000561  -0.005282   0.021827
      5       0.006238  -0.000332   0.000535   0.000200   0.001726  -0.007619
      6       0.315705   0.001721  -0.002131   0.000103   0.014777   0.007469
      7       0.026241  -0.000273  -0.000654  -0.000319   0.071538   0.031394
      8       0.044969   0.000403  -0.000261   0.000105  -0.013356  -0.005696
      9      -0.173681  -0.001171   0.001947  -0.001461  -0.060944   0.269843
     10      -0.323337  -0.003724  -0.000133   0.002145   0.056761  -0.245105
     11       0.035534   0.000094   0.000011  -0.000327  -0.020584   0.090217
     12      -0.311618  -0.003339  -0.004713  -0.000284  -0.182036  -0.079449
     13       0.156650  -0.000402  -0.001255  -0.000917  -0.822278  -0.354274
     14      -0.084961  -0.000121  -0.000305   0.000137   0.150958   0.064875
     15      -0.309872  -0.000706  -0.000221   0.000050   0.003410  -0.012627
     16      -0.027114  -0.000029   0.000028   0.000030   0.014613  -0.055094
     17      -0.044301  -0.000150  -0.000030   0.000032  -0.002499   0.009491
     18      -0.260219  -0.000829   0.000106   0.000009   0.022984  -0.009405
     19      -0.178081  -0.000397   0.000942   0.000113  -0.023326   0.004647
     20      -0.003823  -0.000064  -0.000140  -0.000001   0.008898  -0.002562
     21       0.293931  -0.000204   0.000221   0.000175  -0.038387   0.141733
     22      -0.155208   0.000033  -0.000317  -0.000026  -0.174597   0.645560
     23       0.078089  -0.000057   0.000073   0.000068   0.030248  -0.111862
     24       0.151020  -0.000444  -0.001512  -0.000140  -0.295582   0.090360
     25       0.295628   0.000061  -0.001334  -0.000317   0.264717  -0.076181
     26      -0.039192  -0.000029   0.000108   0.000021  -0.106284   0.031424
     27       0.137471   0.000221  -0.000077   0.000041  -0.017754   0.039596
     28       0.058152   0.000171  -0.000081  -0.000033  -0.005830   0.015275
     29       0.010090  -0.000006  -0.000017   0.000025  -0.001681   0.003247
     30       0.170413   0.000364  -0.000363  -0.000105   0.214013  -0.471546
     31       0.045990   0.000398  -0.000031  -0.000182   0.073993  -0.164964
     32       0.017277   0.000084  -0.000055  -0.000043   0.019341  -0.042234
     33       0.005994  -0.034805  -0.000838  -0.002137   0.000282  -0.000137
     34       0.017839  -0.052234  -0.169777   0.002189   0.000051   0.000216
     35      -0.002492   0.010036   0.055602  -0.001142   0.000037  -0.000085
     36       0.007011   0.051650   0.113738   0.004652  -0.001322  -0.000335
     37       0.035320   0.370507   0.858161  -0.034684  -0.000432  -0.000106
     38      -0.006878  -0.112776  -0.263143   0.012047  -0.000100  -0.000013
     39       0.015777   0.110662  -0.057677   0.113381  -0.000249  -0.000101
     40      -0.012822  -0.058108   0.044121   0.162572  -0.000047  -0.000103
     41      -0.001184   0.064974  -0.039154  -0.033569   0.000028   0.000005
     42      -0.003359   0.039128  -0.024418  -0.053770   0.000273  -0.000274
     43      -0.020025   0.584411  -0.259113  -0.631712   0.000090  -0.000911
     44       0.014015  -0.254190   0.114448   0.269125   0.000031   0.000114
     45       0.014402  -0.566053   0.221565  -0.610305  -0.000025   0.000018
     46       0.017442  -0.300418   0.107283  -0.325642   0.000202  -0.000072
     47       0.003458  -0.071149   0.032102  -0.072786  -0.000085   0.000026
     48      -0.000234   0.000179  -0.000697  -0.000279   0.000008   0.000014
     49       0.000795  -0.000445   0.000863  -0.000337  -0.000008   0.000014
     50       0.002459  -0.001671   0.002605   0.000302  -0.000032  -0.000006
                 48         49         50    
      0       0.001489   0.000030   0.000843
      1       0.000682  -0.002885   0.000928
      2       0.000089   0.000649  -0.000068
      3       0.030879  -0.043958   0.025069
      4      -0.029862   0.037661  -0.019711
      5       0.010678  -0.014236   0.007763
      6       0.006785   0.006012   0.004511
      7       0.023524   0.015600   0.011741
      8      -0.004081  -0.002460  -0.001849
      9      -0.368815   0.486344  -0.262151
     10       0.334469  -0.435872   0.232935
     11      -0.123212   0.161529  -0.086660
     12      -0.058745  -0.040941  -0.029946
     13      -0.258038  -0.170566  -0.125051
     14       0.047111   0.030745   0.022612
     15       0.003026   0.010716  -0.008736
     16       0.028960   0.032673  -0.044841
     17      -0.005590  -0.005112   0.008001
     18      -0.036397  -0.035336  -0.029699
     19       0.028260   0.031444   0.028833
     20      -0.012117  -0.012638  -0.011140
     21      -0.067257  -0.084021   0.104087
     22      -0.322963  -0.367036   0.483525
     23       0.056630   0.062889  -0.084021
     24       0.395727   0.393821   0.335896
     25      -0.345528  -0.348306  -0.300061
     26       0.140338   0.140641   0.120642
     27       0.041878  -0.020515  -0.052849
     28       0.011430  -0.010996  -0.018133
     29       0.004468  -0.001014  -0.004845
     30      -0.471055   0.240079   0.576642
     31      -0.159801   0.087693   0.199320
     32      -0.043445   0.020730   0.052296
     33       0.000280  -0.000346   0.000276
     34      -0.000093   0.000416  -0.000168
     35       0.000054  -0.000157   0.000082
     36      -0.000729   0.000371  -0.000566
     37      -0.000262   0.000088  -0.000197
     38      -0.000047   0.000027  -0.000053
     39      -0.000071  -0.000051  -0.000158
     40      -0.000021  -0.000069   0.000054
     41       0.000054  -0.000031   0.000033
     42       0.000538  -0.000666   0.000402
     43       0.001193  -0.001491   0.000727
     44      -0.000150   0.000158  -0.000052
     45       0.000024  -0.000052  -0.000011
     46       0.000329  -0.000233   0.000198
     47      -0.000099   0.000055  -0.000081
     48       0.000005  -0.000017  -0.000025
     49       0.000007  -0.000002  -0.000003
     50      -0.000003   0.000002  -0.000024


-----------
IR SPECTRUM
-----------

 Mode   freq       eps      Int      T**2         TX        TY        TZ
       cm**-1   L/(mol*cm) km/mol    a.u.
----------------------------------------------------------------------------
  8:     65.97   0.000280    1.42  0.001326  (-0.035314 -0.008500  0.002525)
  9:    149.67   0.000357    1.80  0.000744  (-0.022008  0.004602 -0.015436)
 10:    221.42   0.000108    0.55  0.000152  ( 0.006359  0.002067 -0.010367)
 11:    260.71   0.000278    1.40  0.000333  (-0.013553  0.009125  0.008104)
 12:    408.96   0.000055    0.28  0.000042  (-0.003541  0.000749  0.005373)
 13:    417.95   0.000375    1.90  0.000280  (-0.014345  0.005680  0.006499)
 14:    453.55   0.001119    5.66  0.000770  (-0.007335 -0.005838 -0.026120)
 15:    511.26   0.001022    5.17  0.000624  ( 0.023769 -0.000148 -0.007679)
 16:    603.37   0.000138    0.70  0.000071  ( 0.000866  0.000192 -0.008407)
 17:    627.18   0.000003    0.01  0.000001  (-0.001137 -0.000107  0.000179)
 18:    702.01   0.001239    6.26  0.000551  (-0.017533  0.012229  0.009687)
 19:    714.90   0.014690   74.24  0.006412  ( 0.022396 -0.022824 -0.073416)
 20:    740.90   0.005126   25.90  0.002159  ( 0.028823 -0.010159 -0.035000)
 21:    753.44   0.000544    2.75  0.000225  ( 0.003167 -0.007103 -0.012831)
 22:    809.59   0.003417   17.27  0.001317  (-0.003236 -0.006648 -0.035530)
 23:    837.63   0.000345    1.74  0.000129  ( 0.008294  0.007655  0.001117)
 24:    864.05   0.000029    0.15  0.000010  ( 0.002210 -0.001309 -0.001958)
 25:    954.58   0.000384    1.94  0.000125  (-0.001447 -0.002396 -0.010843)
 26:    999.25   0.000756    3.82  0.000236  ( 0.010791 -0.002180  0.010715)
 27:   1010.05   0.000160    0.81  0.000049  (-0.000367 -0.000178  0.007011)
 28:   1012.38   0.000028    0.14  0.000008  ( 0.000357 -0.001006 -0.002712)
 29:   1037.70   0.000002    0.01  0.000001  (-0.000227  0.000444  0.000709)
 30:   1050.74   0.000131    0.66  0.000039  (-0.003499  0.000597 -0.005133)
 31:   1061.63   0.000475    2.40  0.000140  ( 0.011084  0.003609  0.001967)
 32:   1116.08   0.001533    7.75  0.000429  (-0.009186  0.017551 -0.006010)
 33:   1165.39   0.000035    0.18  0.000009  (-0.002820 -0.000266 -0.001125)
 34:   1193.35   0.000122    0.62  0.000032  (-0.004974  0.000156  0.002663)
 35:   1264.54   0.000906    4.58  0.000223  ( 0.012353  0.007612  0.003597)
 36:   1325.13   0.000577    2.91  0.000136  ( 0.010060  0.005477 -0.002149)
 37:   1353.90   0.000187    0.95  0.000043  ( 0.004632 -0.004355  0.001639)
 38:   1478.77   0.002708   13.69  0.000572  (-0.013663 -0.014458  0.013259)
 39:   1523.48   0.006025   30.45  0.001234  ( 0.032645 -0.009605 -0.008733)
 40:   1564.26   0.008911   45.03  0.001778  (-0.026646  0.020280  0.025621)
 41:   1661.29   0.000132    0.67  0.000025  ( 0.001007  0.002219 -0.004340)
 42:   1683.31   0.000179    0.90  0.000033  ( 0.004506  0.001170 -0.003393)
 43:   2317.49   0.001385    7.00  0.000187  (-0.011411 -0.000946  0.007445)
 44:   2358.73   0.001311    6.63  0.000173  (-0.000566 -0.010810 -0.007505)
 45:   2442.54   0.000022    0.11  0.000003  (-0.000600  0.001203 -0.001024)
 46:   3189.00   0.000581    2.94  0.000057  ( 0.005421  0.005235 -0.000286)
 47:   3196.91   0.000032    0.16  0.000003  (-0.001515  0.000926 -0.000131)
 48:   3206.15   0.000585    2.96  0.000057  ( 0.001895  0.007297 -0.000346)
 49:   3213.48   0.001346    6.80  0.000131  (-0.006046  0.008965 -0.003712)
 50:   3220.29   0.000855    4.32  0.000083  (-0.008519 -0.003179  0.000439)

* The epsilon (eps) is given for a Dirac delta lineshape.
** The dipole moment derivative (T) already includes vibrational overlap.

The first frequency considered to be a vibration is 8
The total number of vibrations considered is 43


--------------------------
THERMOCHEMISTRY AT 298.15K
--------------------------

Temperature         ... 298.15 K
Pressure            ... 1.00 atm
Total Mass          ... 123.13 AMU

Throughout the following assumptions are being made:
  (1) The electronic state is orbitally nondegenerate
      but the spin degeneracy is treated
  (2) There are no thermally accessible electronically excited states
  (3) Hindered rotations indicated by low frequency modes are not
      treated as such but are treated as vibrations and this may
      cause some error
  (4) All equations used are the standard statistical mechanics
      equations for an ideal gas
  (5) All vibrations are strictly harmonic

freq.      65.97  E(vib)   ...       0.50 
freq.     149.67  E(vib)   ...       0.40 
freq.     221.42  E(vib)   ...       0.33 
freq.     260.71  E(vib)   ...       0.30 
freq.     408.96  E(vib)   ...       0.19 
freq.     417.95  E(vib)   ...       0.18 
freq.     453.55  E(vib)   ...       0.16 
freq.     511.26  E(vib)   ...       0.14 
freq.     603.37  E(vib)   ...       0.10 
freq.     627.18  E(vib)   ...       0.09 
freq.     702.01  E(vib)   ...       0.07 
freq.     714.90  E(vib)   ...       0.07 
freq.     740.90  E(vib)   ...       0.06 
freq.     753.44  E(vib)   ...       0.06 
freq.     809.59  E(vib)   ...       0.05 
freq.     837.63  E(vib)   ...       0.04 
freq.     864.05  E(vib)   ...       0.04 
freq.     954.58  E(vib)   ...       0.03 
freq.     999.25  E(vib)   ...       0.02 
freq.    1010.05  E(vib)   ...       0.02 
freq.    1012.38  E(vib)   ...       0.02 
freq.    1037.70  E(vib)   ...       0.02 
freq.    1050.74  E(vib)   ...       0.02 
freq.    1061.63  E(vib)   ...       0.02 
freq.    1116.08  E(vib)   ...       0.01 
freq.    1165.39  E(vib)   ...       0.01 
freq.    1193.35  E(vib)   ...       0.01 
freq.    1264.54  E(vib)   ...       0.01 
freq.    1325.13  E(vib)   ...       0.01 
freq.    1353.90  E(vib)   ...       0.01 
freq.    1478.77  E(vib)   ...       0.00 
freq.    1523.48  E(vib)   ...       0.00 
freq.    1564.26  E(vib)   ...       0.00 
freq.    1661.29  E(vib)   ...       0.00 
freq.    1683.31  E(vib)   ...       0.00 
freq.    2317.49  E(vib)   ...       0.00 
freq.    2358.73  E(vib)   ...       0.00 
freq.    2442.54  E(vib)   ...       0.00 
freq.    3189.00  E(vib)   ...       0.00 
freq.    3196.91  E(vib)   ...       0.00 
freq.    3206.15  E(vib)   ...       0.00 
freq.    3213.48  E(vib)   ...       0.00 
freq.    3220.29  E(vib)   ...       0.00 

------------
INNER ENERGY
------------

The inner energy is: U= E(el) + E(ZPE) + E(vib) + E(rot) + E(trans)
    E(el)   - is the total energy from the electronic structure calculation
              = E(kin-el) + E(nuc-el) + E(el-el) + E(nuc-nuc)
    E(ZPE)  - the the zero temperature vibrational energy from the frequency calculation
    E(vib)  - the the finite temperature correction to E(ZPE) due to population
              of excited vibrational states
    E(rot)  - is the rotational thermal energy
    E(trans)- is the translational thermal energy

Summary of contributions to the inner energy U:
Electronic energy                ...   -384.21940649 Eh
Zero point energy                ...      0.12471369 Eh      78.26 kcal/mol
Thermal vibrational correction   ...      0.00478667 Eh       3.00 kcal/mol
Thermal rotational correction    ...      0.00141627 Eh       0.89 kcal/mol
Thermal translational correction ...      0.00141627 Eh       0.89 kcal/mol
-----------------------------------------------------------------------
Total thermal energy                   -384.08707358 Eh


Summary of corrections to the electronic energy:
(perhaps to be used in another calculation)
Total thermal correction                  0.00761921 Eh       4.78 kcal/mol
Non-thermal (ZPE) correction              0.12471369 Eh      78.26 kcal/mol
-----------------------------------------------------------------------
Total correction                          0.13233291 Eh      83.04 kcal/mol


--------
ENTHALPY
--------

The enthalpy is H = U + kB*T
                kB is Boltzmann's constant
Total free energy                 ...   -384.08707358 Eh 
Thermal Enthalpy correction       ...      0.00094421 Eh       0.59 kcal/mol
-----------------------------------------------------------------------
Total Enthalpy                    ...   -384.08612937 Eh


Note: Only C1 symmetry has been detected, increase convergence thresholds 
      if your molecule has a higher symmetry. Symmetry factor of 1.0 is   
      used for the rotational entropy correction. 
 

Note: Rotational entropy computed according to Herzberg 
Infrared and Raman Spectra, Chapter V,1, Van Nostrand Reinhold, 1945 
Point Group:  C1, Symmetry Number:   1  
Rotational constants in cm-1:     0.114097     0.031007     0.027425 

Vibrational entropy computed according to the QRRHO of S. Grimme
Chem.Eur.J. 2012 18 9955


-------
ENTROPY
-------

The entropy contributions are T*S = T*(S(el)+S(vib)+S(rot)+S(trans))
     S(el)   - electronic entropy
     S(vib)  - vibrational entropy
     S(rot)  - rotational entropy
     S(trans)- translational entropy
The entropies will be listed as multiplied by the temperature to get
units of energy

Electronic entropy                ...      0.00103729 Eh      0.65 kcal/mol
Vibrational entropy               ...      0.00775052 Eh      4.86 kcal/mol
Rotational entropy                ...      0.01387318 Eh      8.71 kcal/mol
Translational entropy             ...      0.01916589 Eh     12.03 kcal/mol
-----------------------------------------------------------------------
Final entropy term                ...      0.04182688 Eh     26.25 kcal/mol

In case the symmetry of your molecule has not been determined correctly
or in case you have a reason to use a different symmetry number we print 
out the resulting rotational entropy values for sn=1,12 :
 --------------------------------------------------------
|  sn= 1 | S(rot)=       0.01387318 Eh      8.71 kcal/mol|
|  sn= 2 | S(rot)=       0.01321873 Eh      8.29 kcal/mol|
|  sn= 3 | S(rot)=       0.01283589 Eh      8.05 kcal/mol|
|  sn= 4 | S(rot)=       0.01256427 Eh      7.88 kcal/mol|
|  sn= 5 | S(rot)=       0.01235358 Eh      7.75 kcal/mol|
|  sn= 6 | S(rot)=       0.01218144 Eh      7.64 kcal/mol|
|  sn= 7 | S(rot)=       0.01203589 Eh      7.55 kcal/mol|
|  sn= 8 | S(rot)=       0.01190981 Eh      7.47 kcal/mol|
|  sn= 9 | S(rot)=       0.01179860 Eh      7.40 kcal/mol|
|  sn=10 | S(rot)=       0.01169912 Eh      7.34 kcal/mol|
|  sn=11 | S(rot)=       0.01160913 Eh      7.28 kcal/mol|
|  sn=12 | S(rot)=       0.01152698 Eh      7.23 kcal/mol|
 --------------------------------------------------------


-------------------
GIBBS FREE ENERGY
-------------------

The Gibbs free energy is G = H - T*S

Total enthalpy                    ...   -384.08612937 Eh 
Total entropy correction          ...     -0.04182688 Eh    -26.25 kcal/mol
-----------------------------------------------------------------------
Final Gibbs free energy         ...   -384.12795625 Eh

For completeness - the Gibbs free energy minus the electronic energy
G-E(el)                           ...      0.09145024 Eh     57.39 kcal/mol


Timings for individual modules:

Sum of individual times         ...    14279.554 sec (= 237.993 min)
GTO integral calculation        ...       38.423 sec (=   0.640 min)   0.3 %
SCF iterations                  ...     5177.281 sec (=  86.288 min)  36.3 %
SCF Gradient evaluation         ...      330.272 sec (=   5.505 min)   2.3 %
Geometry relaxation             ...        7.206 sec (=   0.120 min)   0.1 %
Analytical frequency calculation...     8726.372 sec (= 145.440 min)  61.1 %
                             ****ORCA TERMINATED NORMALLY****
TOTAL RUN TIME: 0 days 3 hours 59 minutes 13 seconds 330 msec
