 Entering Gaussian System, Link 0=g09
 Input=Gas-HF-6-311+G2dfp-Freq-Opt-NH3.inp
 Output=Gas-HF-6-311+G2dfp-Freq-Opt-NH3.log
 Initial command:
 /usr/local/g09/l1.exe /local/gaussian-tmp/3702332/Gau-4723.inp -scrdir=/local/gaussian-tmp/3702332/
 Entering Link 1 = /usr/local/g09/l1.exe PID=      4724.
  
 Copyright (c) 1988,1990,1992,1993,1995,1998,2003,2009, Gaussian, Inc.
                  All Rights Reserved.
  
 This is part of the Gaussian(R) 09 program.  It is based on
 the Gaussian(R) 03 system (copyright 2003, Gaussian, Inc.),
 the Gaussian(R) 98 system (copyright 1998, Gaussian, Inc.),
 the Gaussian(R) 94 system (copyright 1995, Gaussian, Inc.),
 the Gaussian 92(TM) system (copyright 1992, Gaussian, Inc.),
 the Gaussian 90(TM) system (copyright 1990, Gaussian, Inc.),
 the Gaussian 88(TM) system (copyright 1988, Gaussian, Inc.),
 the Gaussian 86(TM) system (copyright 1986, Carnegie Mellon
 University), and the Gaussian 82(TM) system (copyright 1983,
 Carnegie Mellon University). Gaussian is a federally registered
 trademark of Gaussian, Inc.
  
 This software contains proprietary and confidential information,
 including trade secrets, belonging to Gaussian, Inc.
  
 This software is provided under written license and may be
 used, copied, transmitted, or stored only in accord with that
 written license.
  
 The following legend is applicable only to US Government
 contracts under FAR:
  
                    RESTRICTED RIGHTS LEGEND
  
 Use, reproduction and disclosure by the US Government is
 subject to restrictions as set forth in subparagraphs (a)
 and (c) of the Commercial Computer Software - Restricted
 Rights clause in FAR 52.227-19.
  
 Gaussian, Inc.
 340 Quinnipiac St., Bldg. 40, Wallingford CT 06492
  
  
 ---------------------------------------------------------------
 Warning -- This program may not be used in any manner that
 competes with the business of Gaussian, Inc. or will provide
 assistance to any competitor of Gaussian, Inc.  The licensee
 of this program is prohibited from giving any competitor of
 Gaussian, Inc. access to this program.  By using this program,
 the user acknowledges that Gaussian, Inc. is engaged in the
 business of creating and licensing software in the field of
 computational chemistry and represents and warrants to the
 licensee that it is not a competitor of Gaussian, Inc. and that
 it will not use this program in any manner prohibited above.
 ---------------------------------------------------------------
  

 Cite this work as:
 Gaussian 09, Revision A.02,
 M. J. Frisch, G. W. Trucks, H. B. Schlegel, G. E. Scuseria, 
 M. A. Robb, J. R. Cheeseman, G. Scalmani, V. Barone, B. Mennucci, 
 G. A. Petersson, H. Nakatsuji, M. Caricato, X. Li, H. P. Hratchian, 
 A. F. Izmaylov, J. Bloino, G. Zheng, J. L. Sonnenberg, M. Hada, 
 M. Ehara, K. Toyota, R. Fukuda, J. Hasegawa, M. Ishida, T. Nakajima, 
 Y. Honda, O. Kitao, H. Nakai, T. Vreven, J. A. Montgomery, Jr., 
 J. E. Peralta, F. Ogliaro, M. Bearpark, J. J. Heyd, E. Brothers, 
 K. N. Kudin, V. N. Staroverov, R. Kobayashi, J. Normand, 
 K. Raghavachari, A. Rendell, J. C. Burant, S. S. Iyengar, J. Tomasi, 
 M. Cossi, N. Rega, J. M. Millam, M. Klene, J. E. Knox, J. B. Cross, 
 V. Bakken, C. Adamo, J. Jaramillo, R. Gomperts, R. E. Stratmann, 
 O. Yazyev, A. J. Austin, R. Cammi, C. Pomelli, J. W. Ochterski, 
 R. L. Martin, K. Morokuma, V. G. Zakrzewski, G. A. Voth, 
 P. Salvador, J. J. Dannenberg, S. Dapprich, A. D. Daniels, 
 O. Farkas, J. B. Foresman, J. V. Ortiz, J. Cioslowski, 
 and D. J. Fox, Gaussian, Inc., Wallingford CT, 2009.
 
 ******************************************
 Gaussian 09:  EM64L-G09RevA.02 11-Jun-2009
                29-May-2015 
 ******************************************
 %chk=fsasadsaddsh
 %mem=10GB
 %nproc=8
 Will use up to    8 processors via shared memory.
 ----------------------------
 # HF/6-311+G(2df,p) Opt Freq
 ----------------------------
 1/18=20,19=15,38=1/1,3;
 2/9=110,12=2,17=6,18=5,40=1/2;
 3/5=4,6=6,7=114,11=9,16=1,25=1,30=1,71=1/1,2,3;
 4//1;
 5/5=2,38=5/2;
 6/7=2,8=2,9=2,10=2,28=1/1;
 7//1,2,3,16;
 1/18=20,19=15/3(2);
 2/9=110/2;
 99//99;
 2/9=110/2;
 3/5=4,6=6,7=114,11=9,16=1,25=1,30=1,71=1/1,2,3;
 4/5=5,16=3/1;
 5/5=2,38=5/2;
 7//1,2,3,16;
 1/18=20,19=15/3(-5);
 2/9=110/2;
 6/7=2,8=2,9=2,10=2,19=2,28=1/1;
 99/9=1/99;
 -----
 title
 -----
 Symbolic Z-matrix:
 Charge =  0 Multiplicity = 1
 7                     0.        0.        0.10047 
 1                     0.        0.97283  -0.80376 
 1                     0.       -0.97283  -0.80376 
 1                     0.        0.        1.10047 
 

 GradGradGradGradGradGradGradGradGradGradGradGradGradGradGradGradGradGrad
 Berny optimization.
 Initialization pass.
                           ----------------------------
                           !    Initial Parameters    !
                           ! (Angstroms and Degrees)  !
 --------------------------                            --------------------------
 ! Name  Definition              Value          Derivative Info.                !
 --------------------------------------------------------------------------------
 ! R1    R(1,2)                  1.3282         estimate D2E/DX2                !
 ! R2    R(1,3)                  1.3282         estimate D2E/DX2                !
 ! R3    R(1,4)                  1.0            estimate D2E/DX2                !
 ! A1    A(2,1,3)               94.1858         estimate D2E/DX2                !
 ! A2    A(2,1,4)              132.9071         estimate D2E/DX2                !
 ! A3    A(3,1,4)              132.9071         estimate D2E/DX2                !
 ! D1    D(2,1,4,3)            180.0            estimate D2E/DX2                !
 --------------------------------------------------------------------------------
 Trust Radius=3.00D-01 FncErr=1.00D-07 GrdErr=1.00D-07
 Number of steps in this run=  20 maximum allowed number of steps= 100.
 GradGradGradGradGradGradGradGradGradGradGradGradGradGradGradGradGradGrad

                          Input orientation:                          
 ---------------------------------------------------------------------
 Center     Atomic      Atomic             Coordinates (Angstroms)
 Number     Number       Type             X           Y           Z
 ---------------------------------------------------------------------
      1          7           0        0.000000    0.000000    0.100470
      2          1           0        0.000000    0.972827   -0.803761
      3          1           0        0.000000   -0.972827   -0.803761
      4          1           0        0.000000    0.000000    1.100470
 ---------------------------------------------------------------------
                    Distance matrix (angstroms):
                    1          2          3          4
     1  N    0.000000
     2  H    1.328166   0.000000
     3  H    1.328166   1.945654   0.000000
     4  H    1.000000   2.138338   2.138338   0.000000
 Stoichiometry    H3N
 Framework group  C2V[C2(NH),SGV(H2)]
 Deg. of freedom     3
 Full point group                 C2V     NOp   4
 Largest Abelian subgroup         C2V     NOp   4
 Largest concise Abelian subgroup C2      NOp   2
                         Standard orientation:                         
 ---------------------------------------------------------------------
 Center     Atomic      Atomic             Coordinates (Angstroms)
 Number     Number       Type             X           Y           Z
 ---------------------------------------------------------------------
      1          7           0        0.000000    0.000000    0.080846
      2          1           0        0.000000    0.972827   -0.823385
      3          1           0        0.000000   -0.972827   -0.823385
      4          1           0        0.000000    0.000000    1.080846
 ---------------------------------------------------------------------
 Rotational constants (GHZ):    264.9298088    193.1214292    111.6984718
 Standard basis: 6-311+G(2df,p) (5D, 7F)
 There are    24 symmetry adapted basis functions of A1  symmetry.
 There are     4 symmetry adapted basis functions of A2  symmetry.
 There are    10 symmetry adapted basis functions of B1  symmetry.
 There are    14 symmetry adapted basis functions of B2  symmetry.
 Integral buffers will be    131072 words long.
 Raffenetti 1 integral format.
 Two-electron integral symmetry is turned on.
    52 basis functions,    76 primitive gaussians,    57 cartesian basis functions
     5 alpha electrons        5 beta electrons
       nuclear repulsion energy        10.0491384798 Hartrees.
 NAtoms=    4 NActive=    4 NUniq=    3 SFac= 1.33D+00 NAtFMM=   80 NAOKFM=F Big=F
 One-electron integrals computed using PRISM.
 NBasis=    52 RedAO= T  NBF=    24     4    10    14
 NBsUse=    52 1.00D-06 NBFU=    24     4    10    14
 Harris functional with IExCor=  205 diagonalized for initial guess.
 ExpMin= 6.39D-02 ExpMax= 6.29D+03 ExpMxC= 9.49D+02 IAcc=2 IRadAn=         0 AccDes= 0.00D+00
 HarFok:  IExCor=  205 AccDes= 0.00D+00 IRadAn=         0 IDoV= 1
 ScaDFX=  1.000000  1.000000  1.000000  1.000000
 FoFCou: FMM=F IPFlag=           0 FMFlag=      100000 FMFlg1=           0
         NFxFlg=           0 DoJE=T BraDBF=F KetDBF=T FulRan=T
         Omega=  0.000000  0.000000  1.000000  0.000000  0.000000 ICntrl=     500 IOpCl=  0
         NMat0=    1 NMatS0=    1 NMatT0=    0 NMatD0=    1 NMtDS0=    0 NMtDT0=    0
         I1Cent=           4 NGrid=           0.
 Petite list used in FoFCou.
 Initial guess orbital symmetries:
       Occupied  (A1) (A1) (A1) (B2) (B1)
       Virtual   (A1) (B2) (A1) (B2) (B1) (A1) (A1) (B2) (A1) (A1)
                 (A1) (B2) (B1) (B1) (A2) (A1) (B2) (A1) (A1) (B2)
                 (A2) (B1) (A1) (B2) (B1) (A1) (A1) (B2) (A1) (B2)
                 (A1) (B1) (B2) (A2) (B1) (A1) (B2) (B1) (A1) (B2)
                 (A2) (B1) (A1) (A1) (A1) (B2) (A1)
 The electronic state of the initial guess is 1-A1.
 Requested convergence on RMS density matrix=1.00D-08 within 128 cycles.
 Requested convergence on MAX density matrix=1.00D-06.
 Requested convergence on             energy=1.00D-06.
 No special actions if energy rises.
 Keep R1 ints in memory in canonical form, NReq=3335928.
 SCF Done:  E(RHF) =  -56.0720039854     A.U. after   10 cycles
             Convg  =    0.4858D-08             -V/T =  2.0127

 **********************************************************************

            Population analysis using the SCF density.

 **********************************************************************

 Orbital symmetries:
       Occupied  (A1) (A1) (A1) (B2) (B1)
       Virtual   (A1) (A1) (B2) (B2) (B1) (A1) (A1) (B2) (A1) (A1)
                 (A1) (B2) (B1) (B1) (A2) (A1) (B2) (A1) (A1) (B2)
                 (B1) (A2) (A1) (B2) (B1) (A1) (A1) (B2) (B2) (A1)
                 (A1) (B1) (B2) (A2) (A1) (B1) (B2) (B1) (A1) (B2)
                 (A2) (B1) (A1) (A1) (B2) (A1) (A1)
 The electronic state is 1-A1.
 Alpha  occ. eigenvalues --  -15.57685  -1.05129  -0.62783  -0.48925  -0.38445
 Alpha virt. eigenvalues --    0.10045   0.13978   0.17708   0.18502   0.19914
 Alpha virt. eigenvalues --    0.22743   0.30420   0.52297   0.57077   0.71683
 Alpha virt. eigenvalues --    0.92758   0.96844   1.00356   1.10759   1.14781
 Alpha virt. eigenvalues --    1.18108   1.41092   1.41900   1.46799   1.71648
 Alpha virt. eigenvalues --    1.83302   1.83380   2.02414   2.07726   2.22264
 Alpha virt. eigenvalues --    2.35888   2.75073   2.78050   2.82423   2.87688
 Alpha virt. eigenvalues --    3.09903   4.03755   4.09911   4.10110   4.24208
 Alpha virt. eigenvalues --    4.26955   4.35295   4.40886   4.82962   4.87019
 Alpha virt. eigenvalues --    5.26443   5.29187   5.39478   5.51357   5.71499
 Alpha virt. eigenvalues --    5.72517  36.86819
          Condensed to atoms (all electrons):
              1          2          3          4
     1  N    6.870700   0.322864   0.322864   0.363967
     2  H    0.322864   0.450421  -0.042235  -0.012695
     3  H    0.322864  -0.042235   0.450421  -0.012695
     4  H    0.363967  -0.012695  -0.012695   0.344319
 Mulliken atomic charges:
              1
     1  N   -0.880395
     2  H    0.281645
     3  H    0.281645
     4  H    0.317105
 Sum of Mulliken atomic charges =   0.00000
 Mulliken charges with hydrogens summed into heavy atoms:
              1
     1  N    0.000000
 Sum of Mulliken charges with hydrogens summed into heavy atoms =   0.00000
 Electronic spatial extent (au):  <R**2>=             32.0013
 Charge=              0.0000 electrons
 Dipole moment (field-independent basis, Debye):
    X=              0.0000    Y=              0.0000    Z=             -0.6582  Tot=              0.6582
 Quadrupole moment (field-independent basis, Debye-Ang):
   XX=            -10.8441   YY=             -6.4926   ZZ=             -4.2710
   XY=              0.0000   XZ=              0.0000   YZ=              0.0000
 Traceless Quadrupole moment (field-independent basis, Debye-Ang):
   XX=             -3.6416   YY=              0.7100   ZZ=              2.9316
   XY=              0.0000   XZ=              0.0000   YZ=              0.0000
 Octapole moment (field-independent basis, Debye-Ang**2):
  XXX=              0.0000  YYY=              0.0000  ZZZ=              0.8469  XYY=              0.0000
  XXY=              0.0000  XXZ=              0.0839  XZZ=              0.0000  YZZ=              0.0000
  YYZ=             -2.4696  XYZ=              0.0000
 Hexadecapole moment (field-independent basis, Debye-Ang**3):
 XXXX=            -14.1086 YYYY=            -14.9846 ZZZZ=            -11.5059 XXXY=              0.0000
 XXXZ=              0.0000 YYYX=              0.0000 YYYZ=              0.0000 ZZZX=              0.0000
 ZZZY=              0.0000 XXYY=             -5.4594 XXZZ=             -5.2570 YYZZ=             -3.0789
 XXYZ=              0.0000 YYXZ=              0.0000 ZZXY=              0.0000
 N-N= 1.004913847976D+01 E-N=-1.513541046885D+02  KE= 5.537117480679D+01
 Symmetry A1   KE= 5.021632168327D+01
 Symmetry A2   KE= 2.494401631499D-35
 Symmetry B1   KE= 3.075569555966D+00
 Symmetry B2   KE= 2.079283567553D+00
 Calling FoFJK, ICntrl=      2127 FMM=F ISym2X=1 I1Cent= 0 IOpClX= 0 NMat=1 NMatS=1 NMatT=0.
 ***** Axes restored to original set *****
 -------------------------------------------------------------------
 Center     Atomic                   Forces (Hartrees/Bohr)
 Number     Number              X              Y              Z
 -------------------------------------------------------------------
      1        7           0.000000000    0.000000000   -0.211201798
      2        1           0.000000000   -0.081061428    0.111238458
      3        1           0.000000000    0.081061428    0.111238458
      4        1           0.000000000    0.000000000   -0.011275118
 -------------------------------------------------------------------
 Cartesian Forces:  Max     0.211201798 RMS     0.082977521

 GradGradGradGradGradGradGradGradGradGradGradGradGradGradGradGradGradGrad
 Berny optimization.
 Internal  Forces:  Max     0.135106567 RMS     0.075154448
 Search for a local minimum.
 Step number   1 out of a maximum of   20
 All quantities printed in internal units (Hartrees-Bohrs-Radians)
 Mixed Optimization -- RFO/linear search
 Second derivative matrix not updated -- first step.
 The second derivative matrix:
                          R1        R2        R3        A1        A2
           R1           0.17257
           R2           0.00000   0.17257
           R3           0.00000   0.00000   0.47688
           A1           0.00000   0.00000   0.00000   0.16000
           A2           0.00000   0.00000   0.00000   0.00000   0.16000
           A3           0.00000   0.00000   0.00000   0.00000   0.00000
           D1           0.00000   0.00000   0.00000   0.00000   0.00000
                          A3        D1
           A3           0.16000
           D1           0.00000   0.01028
     Eigenvalues ---    0.01028   0.16000   0.16000   0.17257   0.17257
     Eigenvalues ---    0.476881000.00000
 RFO step:  Lambda=-1.30611175D-01 EMin= 1.02838210D-02
 Linear search not attempted -- first point.
 Maximum step size (   0.300) exceeded in Quadratic search.
    -- Step size scaled by   0.457
 Iteration  1 RMS(Cart)=  0.09014458 RMS(Int)=  0.00387068
 Iteration  2 RMS(Cart)=  0.00451256 RMS(Int)=  0.00000813
 Iteration  3 RMS(Cart)=  0.00000678 RMS(Int)=  0.00000000
 Iteration  4 RMS(Cart)=  0.00000000 RMS(Int)=  0.00000000
 ClnCor:  largest displacement from symmetrization is 1.15D-12 for atom     1.
 Variable       Old X    -DE/DX   Delta X   Delta X   Delta X     New X
                                 (Linear)    (Quad)   (Total)
    R1        2.50987  -0.13511   0.00000  -0.20343  -0.20343   2.30644
    R2        2.50987  -0.13511   0.00000  -0.20343  -0.20343   2.30644
    R3        1.88973  -0.01128   0.00000  -0.00847  -0.00847   1.88125
    A1        1.64385   0.04399   0.00000   0.06910   0.06910   1.71295
    A2        2.31967  -0.02199   0.00000  -0.03455  -0.03455   2.28512
    A3        2.31967  -0.02199   0.00000  -0.03455  -0.03455   2.28512
    D1        3.14159   0.00000   0.00000   0.00000   0.00000   3.14159
         Item               Value     Threshold  Converged?
 Maximum Force            0.135107     0.000450     NO 
 RMS     Force            0.075154     0.000300     NO 
 Maximum Displacement     0.105249     0.001800     NO 
 RMS     Displacement     0.091958     0.001200     NO 
 Predicted change in Energy=-5.189233D-02
 GradGradGradGradGradGradGradGradGradGradGradGradGradGradGradGradGradGrad

                          Input orientation:                          
 ---------------------------------------------------------------------
 Center     Atomic      Atomic             Coordinates (Angstroms)
 Number     Number       Type             X           Y           Z
 ---------------------------------------------------------------------
      1          7           0        0.000000    0.000000    0.049258
      2          1           0        0.000000    0.922148   -0.750307
      3          1           0        0.000000   -0.922148   -0.750307
      4          1           0        0.000000    0.000000    1.044774
 ---------------------------------------------------------------------
                    Distance matrix (angstroms):
                    1          2          3          4
     1  N    0.000000
     2  H    1.220517   0.000000
     3  H    1.220517   1.844296   0.000000
     4  H    0.995516   2.018087   2.018087   0.000000
 Stoichiometry    H3N
 Framework group  C2V[C2(NH),SGV(H2)]
 Deg. of freedom     3
 Full point group                 C2V     NOp   4
 Largest Abelian subgroup         C2V     NOp   4
 Largest concise Abelian subgroup C2      NOp   2
                         Standard orientation:                         
 ---------------------------------------------------------------------
 Center     Atomic      Atomic             Coordinates (Angstroms)
 Number     Number       Type             X           Y           Z
 ---------------------------------------------------------------------
      1          7           0        0.000000    0.000000    0.060361
      2          1           0        0.000000    0.922148   -0.739204
      3          1           0        0.000000   -0.922148   -0.739204
      4          1           0        0.000000    0.000000    1.055878
 ---------------------------------------------------------------------
 Rotational constants (GHZ):    294.8497043    223.0577297    126.9889199
 Standard basis: 6-311+G(2df,p) (5D, 7F)
 There are    24 symmetry adapted basis functions of A1  symmetry.
 There are     4 symmetry adapted basis functions of A2  symmetry.
 There are    10 symmetry adapted basis functions of B1  symmetry.
 There are    14 symmetry adapted basis functions of B2  symmetry.
 Integral buffers will be    131072 words long.
 Raffenetti 1 integral format.
 Two-electron integral symmetry is turned on.
    52 basis functions,    76 primitive gaussians,    57 cartesian basis functions
     5 alpha electrons        5 beta electrons
       nuclear repulsion energy        10.6022375721 Hartrees.
 NAtoms=    4 NActive=    4 NUniq=    3 SFac= 1.33D+00 NAtFMM=   80 NAOKFM=F Big=F
 One-electron integrals computed using PRISM.
 NBasis=    52 RedAO= T  NBF=    24     4    10    14
 NBsUse=    52 1.00D-06 NBFU=    24     4    10    14
 Initial guess read from the read-write file.
 B after Tr=     0.000000    0.000000    0.000000
         Rot=    1.000000    0.000000    0.000000    0.000000 Ang=   0.00 deg.
 Initial guess orbital symmetries:
       Occupied  (A1) (A1) (A1) (B2) (B1)
       Virtual   (A1) (A1) (B2) (B2) (B1) (A1) (A1) (B2) (A1) (A1)
                 (A1) (B2) (B1) (B1) (A2) (A1) (B2) (A1) (A1) (B2)
                 (B1) (A2) (A1) (B2) (B1) (A1) (A1) (B2) (B2) (A1)
                 (A1) (B1) (B2) (A2) (A1) (B1) (B2) (B1) (A1) (B2)
                 (A2) (B1) (A1) (A1) (B2) (A1) (A1)
 Harris functional with IExCor=  205 diagonalized for initial guess.
 ExpMin= 6.39D-02 ExpMax= 6.29D+03 ExpMxC= 9.49D+02 IAcc=2 IRadAn=         0 AccDes= 0.00D+00
 HarFok:  IExCor=  205 AccDes= 0.00D+00 IRadAn=         0 IDoV= 1
 ScaDFX=  1.000000  1.000000  1.000000  1.000000
 FoFCou: FMM=F IPFlag=           0 FMFlag=      100000 FMFlg1=           0
         NFxFlg=           0 DoJE=T BraDBF=F KetDBF=T FulRan=T
         Omega=  0.000000  0.000000  1.000000  0.000000  0.000000 ICntrl=     500 IOpCl=  0
         NMat0=    1 NMatS0=    1 NMatT0=    0 NMatD0=    1 NMtDS0=    0 NMtDT0=    0
         I1Cent=           4 NGrid=           0.
 Petite list used in FoFCou.
 Requested convergence on RMS density matrix=1.00D-08 within 128 cycles.
 Requested convergence on MAX density matrix=1.00D-06.
 Requested convergence on             energy=1.00D-06.
 No special actions if energy rises.
 Keep R1 ints in memory in canonical form, NReq=3335928.
 SCF Done:  E(RHF) =  -56.1293164374     A.U. after   10 cycles
             Convg  =    0.4502D-08             -V/T =  2.0105
 Calling FoFJK, ICntrl=      2127 FMM=F ISym2X=1 I1Cent= 0 IOpClX= 0 NMat=1 NMatS=1 NMatT=0.
 ***** Axes restored to original set *****
 -------------------------------------------------------------------
 Center     Atomic                   Forces (Hartrees/Bohr)
 Number     Number              X              Y              Z
 -------------------------------------------------------------------
      1        7           0.000000000    0.000000000   -0.189145355
      2        1           0.000000000   -0.075796137    0.099391100
      3        1           0.000000000    0.075796137    0.099391100
      4        1           0.000000000    0.000000000   -0.009636845
 -------------------------------------------------------------------
 Cartesian Forces:  Max     0.189145355 RMS     0.074786432

 GradGradGradGradGradGradGradGradGradGradGradGradGradGradGradGradGradGrad
 Berny optimization.
 Using GEDIIS/GDIIS optimizer.
 Internal  Forces:  Max     0.122378413 RMS     0.067971607
 Search for a local minimum.
 Step number   2 out of a maximum of   20
 All quantities printed in internal units (Hartrees-Bohrs-Radians)
 Mixed Optimization -- RFO/linear search
 Update second derivatives using D2CorX and points    1    2
 DE= -5.73D-02 DEPred=-5.19D-02 R= 1.10D+00
 SS=  1.41D+00  RLast= 3.00D-01 DXNew= 5.0454D-01 9.0000D-01
 Trust test= 1.10D+00 RLast= 3.00D-01 DXMaxT set to 5.05D-01
 The second derivative matrix:
                          R1        R2        R3        A1        A2
           R1           0.12131
           R2          -0.05127   0.12131
           R3          -0.00551  -0.00551   0.47630
           A1           0.01421   0.01421   0.00149   0.15626
           A2          -0.00711  -0.00711  -0.00074   0.00187   0.15907
           A3          -0.00711  -0.00711  -0.00074   0.00187  -0.00093
           D1           0.00000   0.00000   0.00000   0.00000   0.00000
                          A3        D1
           A3           0.15907
           D1           0.00000   0.01028
 Use linear search instead of GDIIS.
 Linear search step of   0.600 exceeds DXMaxT=   0.505 but not scaled.
 Quartic linear search produced a step of  2.00000.
 Iteration  1 RMS(Cart)=  0.10093050 RMS(Int)=  0.11444372
 Iteration  2 RMS(Cart)=  0.09885085 RMS(Int)=  0.00746050
 Iteration  3 RMS(Cart)=  0.00657988 RMS(Int)=  0.00000424
 Iteration  4 RMS(Cart)=  0.00000393 RMS(Int)=  0.00000000
 Iteration  5 RMS(Cart)=  0.00000000 RMS(Int)=  0.00000000
 ClnCor:  largest displacement from symmetrization is 7.16D-13 for atom     1.
 Variable       Old X    -DE/DX   Delta X   Delta X   Delta X     New X
                                 (Linear)    (Quad)   (Total)
    R1        2.30644  -0.12238  -0.40686   0.00000  -0.40686   1.89959
    R2        2.30644  -0.12238  -0.40686   0.00000  -0.40686   1.89959
    R3        1.88125  -0.00964  -0.01695   0.00000  -0.01695   1.86431
    A1        1.71295   0.03912   0.13820   0.00000   0.13820   1.85115
    A2        2.28512  -0.01956  -0.06910   0.00000  -0.06910   2.21602
    A3        2.28512  -0.01956  -0.06910   0.00000  -0.06910   2.21602
    D1        3.14159   0.00000   0.00000   0.00000   0.00000   3.14159
         Item               Value     Threshold  Converged?
 Maximum Force            0.122378     0.000450     NO 
 RMS     Force            0.067972     0.000300     NO 
 Maximum Displacement     0.224899     0.001800     NO 
 RMS     Displacement     0.186503     0.001200     NO 
 Predicted change in Energy=-9.645797D-02
 GradGradGradGradGradGradGradGradGradGradGradGradGradGradGradGradGradGrad

                          Input orientation:                          
 ---------------------------------------------------------------------
 Center     Atomic      Atomic             Coordinates (Angstroms)
 Number     Number       Type             X           Y           Z
 ---------------------------------------------------------------------
      1          7           0        0.000000    0.000000   -0.046027
      2          1           0        0.000000    0.803137   -0.650539
      3          1           0        0.000000   -0.803137   -0.650539
      4          1           0        0.000000    0.000000    0.940522
 ---------------------------------------------------------------------
                    Distance matrix (angstroms):
                    1          2          3          4
     1  N    0.000000
     2  H    1.005218   0.000000
     3  H    1.005218   1.606273   0.000000
     4  H    0.986549   1.782275   1.782275   0.000000
 Stoichiometry    H3N
 Framework group  C2V[C2(NH),SGV(H2)]
 Deg. of freedom     3
 Full point group                 C2V     NOp   4
 Largest Abelian subgroup         C2V     NOp   4
 Largest concise Abelian subgroup C2      NOp   2
                         Standard orientation:                         
 ---------------------------------------------------------------------
 Center     Atomic      Atomic             Coordinates (Angstroms)
 Number     Number       Type             X           Y           Z
 ---------------------------------------------------------------------
      1          7           0        0.000000    0.000000    0.022247
      2          1           0        0.000000    0.803137   -0.582264
      3          1           0        0.000000   -0.803137   -0.582264
      4          1           0        0.000000    0.000000    1.008797
 ---------------------------------------------------------------------
 Rotational constants (GHZ):    388.7076894    294.7621831    167.6391773
 Standard basis: 6-311+G(2df,p) (5D, 7F)
 There are    24 symmetry adapted basis functions of A1  symmetry.
 There are     4 symmetry adapted basis functions of A2  symmetry.
 There are    10 symmetry adapted basis functions of B1  symmetry.
 There are    14 symmetry adapted basis functions of B2  symmetry.
 Integral buffers will be    131072 words long.
 Raffenetti 1 integral format.
 Two-electron integral symmetry is turned on.
    52 basis functions,    76 primitive gaussians,    57 cartesian basis functions
     5 alpha electrons        5 beta electrons
       nuclear repulsion energy        12.0480347045 Hartrees.
 NAtoms=    4 NActive=    4 NUniq=    3 SFac= 1.33D+00 NAtFMM=   80 NAOKFM=F Big=F
 One-electron integrals computed using PRISM.
 NBasis=    52 RedAO= T  NBF=    24     4    10    14
 NBsUse=    52 1.00D-06 NBFU=    24     4    10    14
 Initial guess read from the read-write file.
 B after Tr=     0.000000    0.000000    0.000000
         Rot=    1.000000    0.000000    0.000000    0.000000 Ang=   0.00 deg.
 Initial guess orbital symmetries:
       Occupied  (A1) (A1) (A1) (B2) (B1)
       Virtual   (A1) (A1) (B2) (B1) (B2) (A1) (A1) (B2) (A1) (A1)
                 (A1) (B2) (B1) (B1) (A1) (A2) (A1) (B2) (A1) (B2)
                 (B1) (A2) (A1) (B2) (B1) (A1) (B2) (A1) (A1) (B2)
                 (A1) (B1) (B2) (A2) (A1) (B1) (B1) (B2) (A1) (B2)
                 (A2) (B1) (A1) (A1) (B2) (A1) (A1)
 Harris functional with IExCor=  205 diagonalized for initial guess.
 ExpMin= 6.39D-02 ExpMax= 6.29D+03 ExpMxC= 9.49D+02 IAcc=2 IRadAn=         0 AccDes= 0.00D+00
 HarFok:  IExCor=  205 AccDes= 0.00D+00 IRadAn=         0 IDoV= 1
 ScaDFX=  1.000000  1.000000  1.000000  1.000000
 FoFCou: FMM=F IPFlag=           0 FMFlag=      100000 FMFlg1=           0
         NFxFlg=           0 DoJE=T BraDBF=F KetDBF=T FulRan=T
         Omega=  0.000000  0.000000  1.000000  0.000000  0.000000 ICntrl=     500 IOpCl=  0
         NMat0=    1 NMatS0=    1 NMatT0=    0 NMatD0=    1 NMtDS0=    0 NMtDT0=    0
         I1Cent=           4 NGrid=           0.
 Petite list used in FoFCou.
 Requested convergence on RMS density matrix=1.00D-08 within 128 cycles.
 Requested convergence on MAX density matrix=1.00D-06.
 Requested convergence on             energy=1.00D-06.
 No special actions if energy rises.
 Keep R1 ints in memory in canonical form, NReq=3335928.
 SCF Done:  E(RHF) =  -56.2031182901     A.U. after   10 cycles
             Convg  =    0.7337D-08             -V/T =  2.0013
 Calling FoFJK, ICntrl=      2127 FMM=F ISym2X=1 I1Cent= 0 IOpClX= 0 NMat=1 NMatS=1 NMatT=0.
 ***** Axes restored to original set *****
 -------------------------------------------------------------------
 Center     Atomic                   Forces (Hartrees/Bohr)
 Number     Number              X              Y              Z
 -------------------------------------------------------------------
      1        7           0.000000000    0.000000000   -0.052176403
      2        1           0.000000000    0.001608138    0.028009834
      3        1           0.000000000   -0.001608138    0.028009834
      4        1           0.000000000    0.000000000   -0.003843264
 -------------------------------------------------------------------
 Cartesian Forces:  Max     0.052176403 RMS     0.018954818

 GradGradGradGradGradGradGradGradGradGradGradGradGradGradGradGradGradGrad
 Berny optimization.
 Using GEDIIS/GDIIS optimizer.
 Internal  Forces:  Max     0.029565223 RMS     0.016080700
 Search for a local minimum.
 Step number   3 out of a maximum of   20
 All quantities printed in internal units (Hartrees-Bohrs-Radians)
 Mixed Optimization -- RFO/linear search
 Update second derivatives using D2CorX and points    2    3
 The second derivative matrix:
                          R1        R2        R3        A1        A2
           R1           0.22108
           R2           0.04851   0.22108
           R3          -0.00222  -0.00222   0.47620
           A1           0.01364   0.01364   0.00227   0.15312
           A2          -0.00682  -0.00682  -0.00113   0.00344   0.15828
           A3          -0.00682  -0.00682  -0.00113   0.00344  -0.00172
           D1           0.00000   0.00000   0.00000   0.00000   0.00000
                          A3        D1
           A3           0.15828
           D1           0.00000   0.01028
 Use linear search instead of GDIIS.
     Eigenvalues ---    0.01028   0.14516   0.16000   0.17257   0.27404
     Eigenvalues ---    0.476271000.00000
 RFO step:  Lambda=-6.14577806D-03 EMin= 1.02838210D-02
 Quartic linear search produced a step of  0.11148.
 Iteration  1 RMS(Cart)=  0.07045450 RMS(Int)=  0.00404964
 Iteration  2 RMS(Cart)=  0.00392522 RMS(Int)=  0.00000276
 Iteration  3 RMS(Cart)=  0.00000225 RMS(Int)=  0.00000000
 Iteration  4 RMS(Cart)=  0.00000000 RMS(Int)=  0.00000000
 ClnCor:  largest displacement from symmetrization is 4.46D-11 for atom     1.
 Variable       Old X    -DE/DX   Delta X   Delta X   Delta X     New X
                                 (Linear)    (Quad)   (Total)
    R1        1.89959  -0.01556  -0.04536   0.01153  -0.03383   1.86576
    R2        1.89959  -0.01556  -0.04536   0.01153  -0.03383   1.86576
    R3        1.86431  -0.00384  -0.00189  -0.00677  -0.00866   1.85565
    A1        1.85115   0.02957   0.01541   0.15897   0.17438   2.02553
    A2        2.21602  -0.01478  -0.00770  -0.07949  -0.08719   2.12883
    A3        2.21602  -0.01478  -0.00770  -0.07949  -0.08719   2.12883
    D1        3.14159   0.00000   0.00000   0.00000   0.00000   3.14159
         Item               Value     Threshold  Converged?
 Maximum Force            0.029565     0.000450     NO 
 RMS     Force            0.016081     0.000300     NO 
 Maximum Displacement     0.083703     0.001800     NO 
 RMS     Displacement     0.069375     0.001200     NO 
 Predicted change in Energy=-5.327171D-03
 GradGradGradGradGradGradGradGradGradGradGradGradGradGradGradGradGradGrad

                          Input orientation:                          
 ---------------------------------------------------------------------
 Center     Atomic      Atomic             Coordinates (Angstroms)
 Number     Number       Type             X           Y           Z
 ---------------------------------------------------------------------
      1          7           0        0.000000    0.000000   -0.085737
      2          1           0        0.000000    0.837539   -0.608537
      3          1           0        0.000000   -0.837539   -0.608537
      4          1           0        0.000000    0.000000    0.896229
 ---------------------------------------------------------------------
                    Distance matrix (angstroms):
                    1          2          3          4
     1  N    0.000000
     2  H    0.987315   0.000000
     3  H    0.987315   1.675079   0.000000
     4  H    0.981966   1.722147   1.722147   0.000000
 Stoichiometry    H3N
 Framework group  C2V[C2(NH),SGV(H2)]
 Deg. of freedom     3
 Full point group                 C2V     NOp   4
 Largest Abelian subgroup         C2V     NOp   4
 Largest concise Abelian subgroup C2      NOp   2
                         Standard orientation:                         
 ---------------------------------------------------------------------
 Center     Atomic      Atomic             Coordinates (Angstroms)
 Number     Number       Type             X           Y           Z
 ---------------------------------------------------------------------
      1          7           0        0.000000    0.000000    0.006363
      2          1           0        0.000000    0.837539   -0.516436
      3          1           0        0.000000   -0.837539   -0.516436
      4          1           0        0.000000    0.000000    0.988329
 ---------------------------------------------------------------------
 Rotational constants (GHZ):    357.4304923    331.9452453    172.1083960
 Standard basis: 6-311+G(2df,p) (5D, 7F)
 There are    24 symmetry adapted basis functions of A1  symmetry.
 There are     4 symmetry adapted basis functions of A2  symmetry.
 There are    10 symmetry adapted basis functions of B1  symmetry.
 There are    14 symmetry adapted basis functions of B2  symmetry.
 Integral buffers will be    131072 words long.
 Raffenetti 1 integral format.
 Two-electron integral symmetry is turned on.
    52 basis functions,    76 primitive gaussians,    57 cartesian basis functions
     5 alpha electrons        5 beta electrons
       nuclear repulsion energy        12.2063993443 Hartrees.
 NAtoms=    4 NActive=    4 NUniq=    3 SFac= 1.33D+00 NAtFMM=   80 NAOKFM=F Big=F
 One-electron integrals computed using PRISM.
 NBasis=    52 RedAO= T  NBF=    24     4    10    14
 NBsUse=    52 1.00D-06 NBFU=    24     4    10    14
 Initial guess read from the read-write file.
 B after Tr=     0.000000    0.000000    0.000000
         Rot=    1.000000    0.000000    0.000000    0.000000 Ang=   0.00 deg.
 Initial guess orbital symmetries:
       Occupied  (A1) (A1) (A1) (B2) (B1)
       Virtual   (A1) (A1) (B2) (B1) (A1) (B2) (A1) (B2) (A1) (A1)
                 (B2) (A1) (B1) (A1) (B1) (A2) (A1) (A1) (B2) (B2)
                 (B1) (A2) (B2) (A1) (B1) (A1) (B2) (A1) (A1) (B2)
                 (A1) (B2) (A1) (B1) (B1) (A2) (B1) (B2) (A2) (B1)
                 (A1) (A1) (A1) (B2) (B2) (A1) (A1)
 Harris functional with IExCor=  205 diagonalized for initial guess.
 ExpMin= 6.39D-02 ExpMax= 6.29D+03 ExpMxC= 9.49D+02 IAcc=2 IRadAn=         0 AccDes= 0.00D+00
 HarFok:  IExCor=  205 AccDes= 0.00D+00 IRadAn=         0 IDoV= 1
 ScaDFX=  1.000000  1.000000  1.000000  1.000000
 FoFCou: FMM=F IPFlag=           0 FMFlag=      100000 FMFlg1=           0
         NFxFlg=           0 DoJE=T BraDBF=F KetDBF=T FulRan=T
         Omega=  0.000000  0.000000  1.000000  0.000000  0.000000 ICntrl=     500 IOpCl=  0
         NMat0=    1 NMatS0=    1 NMatT0=    0 NMatD0=    1 NMtDS0=    0 NMtDT0=    0
         I1Cent=           4 NGrid=           0.
 Petite list used in FoFCou.
 Requested convergence on RMS density matrix=1.00D-08 within 128 cycles.
 Requested convergence on MAX density matrix=1.00D-06.
 Requested convergence on             energy=1.00D-06.
 No special actions if energy rises.
 Keep R1 ints in memory in canonical form, NReq=3335928.
 SCF Done:  E(RHF) =  -56.2085574863     A.U. after    9 cycles
             Convg  =    0.5208D-08             -V/T =  2.0001
 Calling FoFJK, ICntrl=      2127 FMM=F ISym2X=1 I1Cent= 0 IOpClX= 0 NMat=1 NMatS=1 NMatT=0.
 ***** Axes restored to original set *****
 -------------------------------------------------------------------
 Center     Atomic                   Forces (Hartrees/Bohr)
 Number     Number              X              Y              Z
 -------------------------------------------------------------------
      1        7           0.000000000    0.000000000   -0.014774412
      2        1           0.000000000    0.003238333    0.005617311
      3        1           0.000000000   -0.003238333    0.005617311
      4        1           0.000000000    0.000000000    0.003539790
 -------------------------------------------------------------------
 Cartesian Forces:  Max     0.014774412 RMS     0.005122624

 GradGradGradGradGradGradGradGradGradGradGradGradGradGradGradGradGradGrad
 Berny optimization.
 Using GEDIIS/GDIIS optimizer.
 Internal  Forces:  Max     0.008059955 RMS     0.003965527
 Search for a local minimum.
 Step number   4 out of a maximum of   20
 All quantities printed in internal units (Hartrees-Bohrs-Radians)
 Mixed Optimization -- RFO/linear search
 Update second derivatives using D2CorX and points    3    4
 DE= -5.44D-03 DEPred=-5.33D-03 R= 1.02D+00
 SS=  1.41D+00  RLast= 2.19D-01 DXNew= 8.4853D-01 6.5711D-01
 Trust test= 1.02D+00 RLast= 2.19D-01 DXMaxT set to 6.57D-01
 The second derivative matrix:
                          R1        R2        R3        A1        A2
           R1           0.25164
           R2           0.07907   0.25164
           R3           0.01193   0.01193   0.48267
           A1          -0.01545  -0.01545  -0.00916   0.13125
           A2           0.00772   0.00772   0.00458   0.01437   0.15281
           A3           0.00772   0.00772   0.00458   0.01437  -0.00719
           D1           0.00000   0.00000   0.00000   0.00000   0.00000
                          A3        D1
           A3           0.15281
           D1           0.00000   0.01028
 Use linear search instead of GDIIS.
     Eigenvalues ---    0.01028   0.11336   0.16000   0.17257   0.33184
     Eigenvalues ---    0.485071000.00000
 RFO step:  Lambda=-2.39877246D-04 EMin= 1.02838210D-02
 Quartic linear search produced a step of  0.31747.
 Iteration  1 RMS(Cart)=  0.02828485 RMS(Int)=  0.00065025
 Iteration  2 RMS(Cart)=  0.00058636 RMS(Int)=  0.00000005
 Iteration  3 RMS(Cart)=  0.00000005 RMS(Int)=  0.00000000
 ClnCor:  largest displacement from symmetrization is 2.07D-11 for atom     1.
 Variable       Old X    -DE/DX   Delta X   Delta X   Delta X     New X
                                 (Linear)    (Quad)   (Total)
    R1        1.86576  -0.00023  -0.01074   0.01467   0.00393   1.86968
    R2        1.86576  -0.00023  -0.01074   0.01467   0.00393   1.86968
    R3        1.85565   0.00354  -0.00275   0.01192   0.00917   1.86481
    A1        2.02553   0.00806   0.05536   0.01664   0.07200   2.09754
    A2        2.12883  -0.00403  -0.02768  -0.00832  -0.03600   2.09282
    A3        2.12883  -0.00403  -0.02768  -0.00832  -0.03600   2.09282
    D1        3.14159   0.00000   0.00000   0.00000   0.00000   3.14159
         Item               Value     Threshold  Converged?
 Maximum Force            0.008060     0.000450     NO 
 RMS     Force            0.003966     0.000300     NO 
 Maximum Displacement     0.037938     0.001800     NO 
 RMS     Displacement     0.028103     0.001200     NO 
 Predicted change in Energy=-4.426529D-04
 GradGradGradGradGradGradGradGradGradGradGradGradGradGradGradGradGradGrad

                          Input orientation:                          
 ---------------------------------------------------------------------
 Center     Atomic      Atomic             Coordinates (Angstroms)
 Number     Number       Type             X           Y           Z
 ---------------------------------------------------------------------
      1          7           0        0.000000    0.000000   -0.101675
      2          1           0        0.000000    0.857615   -0.595024
      3          1           0        0.000000   -0.857615   -0.595024
      4          1           0        0.000000    0.000000    0.885142
 ---------------------------------------------------------------------
                    Distance matrix (angstroms):
                    1          2          3          4
     1  N    0.000000
     2  H    0.989392   0.000000
     3  H    0.989392   1.715230   0.000000
     4  H    0.986817   1.710671   1.710671   0.000000
 Stoichiometry    H3N
 Framework group  C2V[C2(HN),SGV(H2)]
 Deg. of freedom     3
 Full point group                 C2V     NOp   4
 Omega: Change in point group or standard orientation.

 Old FWG=C02V [C2(N1H1),SGV(H2)]
 New FWG=C02V [C2(H1N1),SGV(H2)]
 Largest Abelian subgroup         C2V     NOp   4
 Largest concise Abelian subgroup C2      NOp   2
                         Standard orientation:                         
 ---------------------------------------------------------------------
 Center     Atomic      Atomic             Coordinates (Angstroms)
 Number     Number       Type             X           Y           Z
 ---------------------------------------------------------------------
      1          7           0        0.000000    0.000000    0.000012
      2          1           0        0.000000    0.857615    0.493361
      3          1           0        0.000000   -0.857615    0.493361
      4          1           0        0.000000    0.000000   -0.986805
 ---------------------------------------------------------------------
 Rotational constants (GHZ):    343.3223831    340.8923532    171.0515265
 Standard basis: 6-311+G(2df,p) (5D, 7F)
 There are    24 symmetry adapted basis functions of A1  symmetry.
 There are     4 symmetry adapted basis functions of A2  symmetry.
 There are    10 symmetry adapted basis functions of B1  symmetry.
 There are    14 symmetry adapted basis functions of B2  symmetry.
 Integral buffers will be    131072 words long.
 Raffenetti 1 integral format.
 Two-electron integral symmetry is turned on.
    52 basis functions,    76 primitive gaussians,    57 cartesian basis functions
     5 alpha electrons        5 beta electrons
       nuclear repulsion energy        12.1688296958 Hartrees.
 NAtoms=    4 NActive=    4 NUniq=    3 SFac= 1.33D+00 NAtFMM=   80 NAOKFM=F Big=F
 One-electron integrals computed using PRISM.
 NBasis=    52 RedAO= T  NBF=    24     4    10    14
 NBsUse=    52 1.00D-06 NBFU=    24     4    10    14
 Initial guess read from the read-write file.
 B after Tr=     0.000000    0.000000    0.000000
         Rot=    1.000000    0.000000    0.000000    0.000000 Ang=   0.00 deg.
 Initial guess orbital symmetries:
       Occupied  (A1) (A1) (A1) (B2) (B1)
       Virtual   (A1) (A1) (B2) (B1) (A1) (B2) (A1) (B2) (A1) (A1)
                 (B2) (A1) (B1) (A1) (B1) (A2) (A1) (A1) (B2) (B2)
                 (B1) (A2) (B1) (B2) (A1) (A1) (B2) (A1) (A1) (B2)
                 (A1) (B2) (A1) (B1) (B1) (A2) (B1) (B2) (B1) (A2)
                 (A1) (A1) (A1) (B2) (B2) (A1) (A1)
 Harris functional with IExCor=  205 diagonalized for initial guess.
 ExpMin= 6.39D-02 ExpMax= 6.29D+03 ExpMxC= 9.49D+02 IAcc=2 IRadAn=         0 AccDes= 0.00D+00
 HarFok:  IExCor=  205 AccDes= 0.00D+00 IRadAn=         0 IDoV= 1
 ScaDFX=  1.000000  1.000000  1.000000  1.000000
 FoFCou: FMM=F IPFlag=           0 FMFlag=      100000 FMFlg1=           0
         NFxFlg=           0 DoJE=T BraDBF=F KetDBF=T FulRan=T
         Omega=  0.000000  0.000000  1.000000  0.000000  0.000000 ICntrl=     500 IOpCl=  0
         NMat0=    1 NMatS0=    1 NMatT0=    0 NMatD0=    1 NMtDS0=    0 NMtDT0=    0
         I1Cent=           4 NGrid=           0.
 Petite list used in FoFCou.
 Requested convergence on RMS density matrix=1.00D-08 within 128 cycles.
 Requested convergence on MAX density matrix=1.00D-06.
 Requested convergence on             energy=1.00D-06.
 No special actions if energy rises.
 Keep R1 ints in memory in canonical form, NReq=3335928.
 SCF Done:  E(RHF) =  -56.2089675541     A.U. after   11 cycles
             Convg  =    0.1610D-08             -V/T =  2.0004
 Calling FoFJK, ICntrl=      2127 FMM=F ISym2X=1 I1Cent= 0 IOpClX= 0 NMat=1 NMatS=1 NMatT=0.
 ***** Axes restored to original set *****
 -------------------------------------------------------------------
 Center     Atomic                   Forces (Hartrees/Bohr)
 Number     Number              X              Y              Z
 -------------------------------------------------------------------
      1        7           0.000000000    0.000000000   -0.002182043
      2        1           0.000000000   -0.002858807    0.001250807
      3        1           0.000000000    0.002858807    0.001250807
      4        1           0.000000000    0.000000000   -0.000319570
 -------------------------------------------------------------------
 Cartesian Forces:  Max     0.002858807 RMS     0.001424138

 GradGradGradGradGradGradGradGradGradGradGradGradGradGradGradGradGradGrad
 Berny optimization.
 Using GEDIIS/GDIIS optimizer.
 Internal  Forces:  Max     0.003101743 RMS     0.001673969
 Search for a local minimum.
 Step number   5 out of a maximum of   20
 All quantities printed in internal units (Hartrees-Bohrs-Radians)
 Mixed Optimization -- RFO/linear search
 Update second derivatives using D2CorX and points    3    4    5
 DE= -4.10D-04 DEPred=-4.43D-04 R= 9.26D-01
 SS=  1.41D+00  RLast= 8.88D-02 DXNew= 1.1051D+00 2.6651D-01
 Trust test= 9.26D-01 RLast= 8.88D-02 DXMaxT set to 6.57D-01
 The second derivative matrix:
                          R1        R2        R3        A1        A2
           R1           0.25261
           R2           0.08004   0.25261
           R3           0.02025   0.02025   0.48423
           A1           0.01280   0.01280  -0.00684   0.13155
           A2          -0.00640  -0.00640   0.00342   0.01423   0.15289
           A3          -0.00640  -0.00640   0.00342   0.01423  -0.00711
           D1           0.00000   0.00000   0.00000   0.00000   0.00000
                          A3        D1
           A3           0.15289
           D1           0.00000   0.01028
 Use linear search instead of GDIIS.
     Eigenvalues ---    0.01028   0.11471   0.16000   0.17257   0.32998
     Eigenvalues ---    0.489511000.00000
 RFO step:  Lambda=-5.26477091D-05 EMin= 1.02838210D-02
 Quartic linear search produced a step of -0.07685.
 Iteration  1 RMS(Cart)=  0.00485802 RMS(Int)=  0.00000400
 Iteration  2 RMS(Cart)=  0.00000323 RMS(Int)=  0.00000000
 Iteration  3 RMS(Cart)=  0.00000000 RMS(Int)=  0.00000000
 ClnCor:  largest displacement from symmetrization is 8.18D-12 for atom     1.
 Variable       Old X    -DE/DX   Delta X   Delta X   Delta X     New X
                                 (Linear)    (Quad)   (Total)
    R1        1.86968  -0.00310  -0.00030  -0.00893  -0.00923   1.86045
    R2        1.86968  -0.00310  -0.00030  -0.00893  -0.00923   1.86045
    R3        1.86481  -0.00032  -0.00070   0.00078   0.00007   1.86489
    A1        2.09754  -0.00043  -0.00553   0.00380  -0.00174   2.09580
    A2        2.09282   0.00021   0.00277  -0.00190   0.00087   2.09369
    A3        2.09282   0.00021   0.00277  -0.00190   0.00087   2.09369
    D1        3.14159   0.00000   0.00000   0.00000   0.00000   3.14159
         Item               Value     Threshold  Converged?
 Maximum Force            0.003102     0.000450     NO 
 RMS     Force            0.001674     0.000300     NO 
 Maximum Displacement     0.008807     0.001800     NO 
 RMS     Displacement     0.004857     0.001200     NO 
 Predicted change in Energy=-2.914700D-05
 GradGradGradGradGradGradGradGradGradGradGradGradGradGradGradGradGradGrad

                          Input orientation:                          
 ---------------------------------------------------------------------
 Center     Atomic      Atomic             Coordinates (Angstroms)
 Number     Number       Type             X           Y           Z
 ---------------------------------------------------------------------
      1          7           0        0.000000    0.000000   -0.102532
      2          1           0        0.000000    0.852955   -0.594187
      3          1           0        0.000000   -0.852955   -0.594187
      4          1           0        0.000000    0.000000    0.884323
 ---------------------------------------------------------------------
                    Distance matrix (angstroms):
                    1          2          3          4
     1  N    0.000000
     2  H    0.984508   0.000000
     3  H    0.984508   1.705909   0.000000
     4  H    0.986855   1.706905   1.706905   0.000000
 Stoichiometry    H3N
 Framework group  C2V[C2(HN),SGV(H2)]
 Deg. of freedom     3
 Full point group                 C2V     NOp   4
 Largest Abelian subgroup         C2V     NOp   4
 Largest concise Abelian subgroup C2      NOp   2
                         Standard orientation:                         
 ---------------------------------------------------------------------
 Center     Atomic      Atomic             Coordinates (Angstroms)
 Number     Number       Type             X           Y           Z
 ---------------------------------------------------------------------
      1          7           0        0.000000    0.000000    0.000354
      2          1           0        0.000000    0.852955    0.492010
      3          1           0        0.000000   -0.852955    0.492010
      4          1           0        0.000000    0.000000   -0.986501
 ---------------------------------------------------------------------
 Rotational constants (GHZ):    344.6277348    344.0911309    172.1796119
 Standard basis: 6-311+G(2df,p) (5D, 7F)
 There are    24 symmetry adapted basis functions of A1  symmetry.
 There are     4 symmetry adapted basis functions of A2  symmetry.
 There are    10 symmetry adapted basis functions of B1  symmetry.
 There are    14 symmetry adapted basis functions of B2  symmetry.
 Integral buffers will be    131072 words long.
 Raffenetti 1 integral format.
 Two-electron integral symmetry is turned on.
    52 basis functions,    76 primitive gaussians,    57 cartesian basis functions
     5 alpha electrons        5 beta electrons
       nuclear repulsion energy        12.2088833043 Hartrees.
 NAtoms=    4 NActive=    4 NUniq=    3 SFac= 1.33D+00 NAtFMM=   80 NAOKFM=F Big=F
 One-electron integrals computed using PRISM.
 NBasis=    52 RedAO= T  NBF=    24     4    10    14
 NBsUse=    52 1.00D-06 NBFU=    24     4    10    14
 Initial guess read from the read-write file.
 B after Tr=     0.000000    0.000000    0.000000
         Rot=    1.000000    0.000000    0.000000    0.000000 Ang=   0.00 deg.
 Initial guess orbital symmetries:
       Occupied  (A1) (A1) (A1) (B2) (B1)
       Virtual   (A1) (B2) (A1) (B1) (A1) (B2) (A1) (A1) (B2) (A1)
                 (B2) (A1) (B1) (A1) (A2) (B1) (A1) (B2) (A1) (B2)
                 (B1) (B1) (A2) (A1) (B2) (A1) (B2) (A1) (A1) (A1)
                 (B2) (B2) (A1) (B1) (A2) (B1) (B1) (B2) (B1) (A2)
                 (A1) (A1) (B2) (A1) (B2) (A1) (A1)
 Requested convergence on RMS density matrix=1.00D-08 within 128 cycles.
 Requested convergence on MAX density matrix=1.00D-06.
 Requested convergence on             energy=1.00D-06.
 No special actions if energy rises.
 Keep R1 ints in memory in canonical form, NReq=3335928.
 SCF Done:  E(RHF) =  -56.2089784097     A.U. after    8 cycles
             Convg  =    0.3570D-08             -V/T =  2.0001
 Calling FoFJK, ICntrl=      2127 FMM=F ISym2X=1 I1Cent= 0 IOpClX= 0 NMat=1 NMatS=1 NMatT=0.
 ***** Axes restored to original set *****
 -------------------------------------------------------------------
 Center     Atomic                   Forces (Hartrees/Bohr)
 Number     Number              X              Y              Z
 -------------------------------------------------------------------
      1        7           0.000000000    0.000000000    0.002600507
      2        1           0.000000000    0.001709959   -0.001086003
      3        1           0.000000000   -0.001709959   -0.001086003
      4        1           0.000000000    0.000000000   -0.000428502
 -------------------------------------------------------------------
 Cartesian Forces:  Max     0.002600507 RMS     0.001123721

 GradGradGradGradGradGradGradGradGradGradGradGradGradGradGradGradGradGrad
 Berny optimization.
 Using GEDIIS/GDIIS optimizer.
 Internal  Forces:  Max     0.002023809 RMS     0.001094967
 Search for a local minimum.
 Step number   6 out of a maximum of   20
 All quantities printed in internal units (Hartrees-Bohrs-Radians)
 Mixed Optimization -- RFO/linear search
 Update second derivatives using D2CorX and points    3    4    5    6
 DE= -1.09D-05 DEPred=-2.91D-05 R= 3.72D-01
 Trust test= 3.72D-01 RLast= 1.32D-02 DXMaxT set to 6.57D-01
 The second derivative matrix:
                          R1        R2        R3        A1        A2
           R1           0.36308
           R2           0.19051   0.36308
           R3          -0.00350  -0.00350   0.48446
           A1           0.00616   0.00616  -0.00374   0.13143
           A2          -0.00308  -0.00308   0.00187   0.01429   0.15286
           A3          -0.00308  -0.00308   0.00187   0.01429  -0.00714
           D1           0.00000   0.00000   0.00000   0.00000   0.00000
                          A3        D1
           A3           0.15286
           D1           0.00000   0.01028
 Use linear search instead of GDIIS.
     Eigenvalues ---    0.01028   0.11683   0.16000   0.17257   0.48415
     Eigenvalues ---    0.554221000.00000
 RFO step:  Lambda=-1.03292299D-06 EMin= 1.02838210D-02
 Quartic linear search produced a step of -0.38521.
 Iteration  1 RMS(Cart)=  0.00165999 RMS(Int)=  0.00000125
 Iteration  2 RMS(Cart)=  0.00000113 RMS(Int)=  0.00000000
 Iteration  3 RMS(Cart)=  0.00000000 RMS(Int)=  0.00000000
 ClnCor:  largest displacement from symmetrization is 8.75D-12 for atom     1.
 Variable       Old X    -DE/DX   Delta X   Delta X   Delta X     New X
                                 (Linear)    (Quad)   (Total)
    R1        1.86045   0.00202   0.00356   0.00009   0.00364   1.86409
    R2        1.86045   0.00202   0.00356   0.00009   0.00364   1.86409
    R3        1.86489  -0.00043  -0.00003  -0.00082  -0.00085   1.86404
    A1        2.09580  -0.00011   0.00067  -0.00203  -0.00136   2.09444
    A2        2.09369   0.00005  -0.00033   0.00101   0.00068   2.09437
    A3        2.09369   0.00005  -0.00033   0.00101   0.00068   2.09437
    D1        3.14159   0.00000   0.00000   0.00000   0.00000   3.14159
         Item               Value     Threshold  Converged?
 Maximum Force            0.002024     0.000450     NO 
 RMS     Force            0.001095     0.000300     NO 
 Maximum Displacement     0.002521     0.001800     NO 
 RMS     Displacement     0.001660     0.001200     NO 
 Predicted change in Energy=-7.721515D-06
 GradGradGradGradGradGradGradGradGradGradGradGradGradGradGradGradGradGrad

                          Input orientation:                          
 ---------------------------------------------------------------------
 Center     Atomic      Atomic             Coordinates (Angstroms)
 Number     Number       Type             X           Y           Z
 ---------------------------------------------------------------------
      1          7           0        0.000000    0.000000   -0.101648
      2          1           0        0.000000    0.854289   -0.594846
      3          1           0        0.000000   -0.854289   -0.594846
      4          1           0        0.000000    0.000000    0.884759
 ---------------------------------------------------------------------
                    Distance matrix (angstroms):
                    1          2          3          4
     1  N    0.000000
     2  H    0.986435   0.000000
     3  H    0.986435   1.708578   0.000000
     4  H    0.986407   1.708520   1.708520   0.000000
 Stoichiometry    H3N
 Framework group  C2V[C2(HN),SGV(H2)]
 Deg. of freedom     3
 Full point group                 C2V     NOp   4
 Largest Abelian subgroup         C2V     NOp   4
 Largest concise Abelian subgroup C2      NOp   2
                         Standard orientation:                         
 ---------------------------------------------------------------------
 Center     Atomic      Atomic             Coordinates (Angstroms)
 Number     Number       Type             X           Y           Z
 ---------------------------------------------------------------------
      1          7           0        0.000000    0.000000    0.000001
      2          1           0        0.000000    0.854289    0.493199
      3          1           0        0.000000   -0.854289    0.493199
      4          1           0        0.000000    0.000000   -0.986406
 ---------------------------------------------------------------------
 Rotational constants (GHZ):    343.5830801    343.5521125    171.7837978
 Standard basis: 6-311+G(2df,p) (5D, 7F)
 There are    24 symmetry adapted basis functions of A1  symmetry.
 There are     4 symmetry adapted basis functions of A2  symmetry.
 There are    10 symmetry adapted basis functions of B1  symmetry.
 There are    14 symmetry adapted basis functions of B2  symmetry.
 Integral buffers will be    131072 words long.
 Raffenetti 1 integral format.
 Two-electron integral symmetry is turned on.
    52 basis functions,    76 primitive gaussians,    57 cartesian basis functions
     5 alpha electrons        5 beta electrons
       nuclear repulsion energy        12.1948215657 Hartrees.
 NAtoms=    4 NActive=    4 NUniq=    3 SFac= 1.33D+00 NAtFMM=   80 NAOKFM=F Big=F
 One-electron integrals computed using PRISM.
 NBasis=    52 RedAO= T  NBF=    24     4    10    14
 NBsUse=    52 1.00D-06 NBFU=    24     4    10    14
 Initial guess read from the read-write file.
 B after Tr=     0.000000    0.000000    0.000000
         Rot=    1.000000    0.000000    0.000000    0.000000 Ang=   0.00 deg.
 Initial guess orbital symmetries:
       Occupied  (A1) (A1) (B2) (A1) (B1)
       Virtual   (A1) (B2) (A1) (B1) (A1) (A1) (B2) (A1) (B2) (A1)
                 (A1) (B2) (B1) (A1) (B1) (A2) (A1) (B2) (A1) (B2)
                 (B1) (B1) (A2) (B2) (A1) (A1) (A1) (B2) (A1) (B2)
                 (A1) (A1) (B2) (B1) (B1) (A2) (B1) (B2) (A2) (B1)
                 (A1) (A1) (B2) (A1) (A1) (B2) (A1)
 Requested convergence on RMS density matrix=1.00D-08 within 128 cycles.
 Requested convergence on MAX density matrix=1.00D-06.
 Requested convergence on             energy=1.00D-06.
 No special actions if energy rises.
 Keep R1 ints in memory in canonical form, NReq=3335928.
 SCF Done:  E(RHF) =  -56.2089860508     A.U. after    8 cycles
             Convg  =    0.1710D-08             -V/T =  2.0002
 Calling FoFJK, ICntrl=      2127 FMM=F ISym2X=1 I1Cent= 0 IOpClX= 0 NMat=1 NMatS=1 NMatT=0.
 ***** Axes restored to original set *****
 -------------------------------------------------------------------
 Center     Atomic                   Forces (Hartrees/Bohr)
 Number     Number              X              Y              Z
 -------------------------------------------------------------------
      1        7           0.000000000    0.000000000   -0.000022962
      2        1           0.000000000   -0.000001582   -0.000004569
      3        1           0.000000000    0.000001582   -0.000004569
      4        1           0.000000000    0.000000000    0.000032100
 -------------------------------------------------------------------
 Cartesian Forces:  Max     0.000032100 RMS     0.000011563

 GradGradGradGradGradGradGradGradGradGradGradGradGradGradGradGradGradGrad
 Berny optimization.
 Using GEDIIS/GDIIS optimizer.
 Internal  Forces:  Max     0.000032100 RMS     0.000012446
 Search for a local minimum.
 Step number   7 out of a maximum of   20
 All quantities printed in internal units (Hartrees-Bohrs-Radians)
 Mixed Optimization -- En-DIIS/RFO-DIIS
 Update second derivatives using D2CorX and points    3    4    5    6    7
 DE= -7.64D-06 DEPred=-7.72D-06 R= 9.90D-01
 SS=  1.41D+00  RLast= 5.48D-03 DXNew= 1.1051D+00 1.6432D-02
 Trust test= 9.90D-01 RLast= 5.48D-03 DXMaxT set to 6.57D-01
 The second derivative matrix:
                          R1        R2        R3        A1        A2
           R1           0.36523
           R2           0.19266   0.36523
           R3          -0.00753  -0.00753   0.49308
           A1           0.00718   0.00718  -0.00589   0.13142
           A2          -0.00359  -0.00359   0.00295   0.01429   0.15286
           A3          -0.00359  -0.00359   0.00295   0.01429  -0.00714
           D1           0.00000   0.00000   0.00000   0.00000   0.00000
                          A3        D1
           A3           0.15286
           D1           0.00000   0.01028
 Use linear search instead of GDIIS.
     Eigenvalues ---    0.01028   0.11666   0.16000   0.17257   0.49144
     Eigenvalues ---    0.560001000.00000
 RFO step:  Lambda= 0.00000000D+00 EMin= 1.02838210D-02
 Quartic linear search produced a step of -0.00056.
 Iteration  1 RMS(Cart)=  0.00003387 RMS(Int)=  0.00000000
 Iteration  2 RMS(Cart)=  0.00000000 RMS(Int)=  0.00000000
 ClnCor:  largest displacement from symmetrization is 9.72D-12 for atom     1.
 Variable       Old X    -DE/DX   Delta X   Delta X   Delta X     New X
                                 (Linear)    (Quad)   (Total)
    R1        1.86409   0.00000   0.00000   0.00001   0.00000   1.86410
    R2        1.86409   0.00000   0.00000   0.00001   0.00000   1.86410
    R3        1.86404   0.00003   0.00000   0.00006   0.00006   1.86410
    A1        2.09444  -0.00001   0.00000  -0.00005  -0.00005   2.09439
    A2        2.09437   0.00000   0.00000   0.00002   0.00002   2.09440
    A3        2.09437   0.00000   0.00000   0.00002   0.00002   2.09440
    D1        3.14159   0.00000   0.00000   0.00000   0.00000   3.14159
         Item               Value     Threshold  Converged?
 Maximum Force            0.000032     0.000450     YES
 RMS     Force            0.000012     0.000300     YES
 Maximum Displacement     0.000068     0.001800     YES
 RMS     Displacement     0.000034     0.001200     YES
 Predicted change in Energy=-1.246469D-09
 Optimization completed.
    -- Stationary point found.
                           ----------------------------
                           !   Optimized Parameters   !
                           ! (Angstroms and Degrees)  !
 --------------------------                            --------------------------
 ! Name  Definition              Value          Derivative Info.                !
 --------------------------------------------------------------------------------
 ! R1    R(1,2)                  0.9864         -DE/DX =    0.0                 !
 ! R2    R(1,3)                  0.9864         -DE/DX =    0.0                 !
 ! R3    R(1,4)                  0.9864         -DE/DX =    0.0                 !
 ! A1    A(2,1,3)              120.0026         -DE/DX =    0.0                 !
 ! A2    A(2,1,4)              119.9987         -DE/DX =    0.0                 !
 ! A3    A(3,1,4)              119.9987         -DE/DX =    0.0                 !
 ! D1    D(2,1,4,3)            180.0            -DE/DX =    0.0                 !
 --------------------------------------------------------------------------------
 GradGradGradGradGradGradGradGradGradGradGradGradGradGradGradGradGradGrad

                          Input orientation:                          
 ---------------------------------------------------------------------
 Center     Atomic      Atomic             Coordinates (Angstroms)
 Number     Number       Type             X           Y           Z
 ---------------------------------------------------------------------
      1          7           0        0.000000    0.000000   -0.101648
      2          1           0        0.000000    0.854289   -0.594846
      3          1           0        0.000000   -0.854289   -0.594846
      4          1           0        0.000000    0.000000    0.884759
 ---------------------------------------------------------------------
                    Distance matrix (angstroms):
                    1          2          3          4
     1  N    0.000000
     2  H    0.986435   0.000000
     3  H    0.986435   1.708578   0.000000
     4  H    0.986407   1.708520   1.708520   0.000000
 Stoichiometry    H3N
 Framework group  C2V[C2(HN),SGV(H2)]
 Deg. of freedom     3
 Full point group                 C2V     NOp   4
 Largest Abelian subgroup         C2V     NOp   4
 Largest concise Abelian subgroup C2      NOp   2
                         Standard orientation:                         
 ---------------------------------------------------------------------
 Center     Atomic      Atomic             Coordinates (Angstroms)
 Number     Number       Type             X           Y           Z
 ---------------------------------------------------------------------
      1          7           0        0.000000    0.000000    0.000001
      2          1           0        0.000000    0.854289    0.493199
      3          1           0        0.000000   -0.854289    0.493199
      4          1           0        0.000000    0.000000   -0.986406
 ---------------------------------------------------------------------
 Rotational constants (GHZ):    343.5830801    343.5521125    171.7837978

 **********************************************************************

            Population analysis using the SCF density.

 **********************************************************************

 Orbital symmetries:
       Occupied  (A1) (A1) (B2) (A1) (B1)
       Virtual   (A1) (B2) (A1) (B1) (A1) (A1) (B2) (A1) (B2) (A1)
                 (B2) (A1) (B1) (A1) (A2) (B1) (A1) (B2) (A1) (B2)
                 (B1) (B1) (A2) (A1) (B2) (A1) (B2) (A1) (A1) (A1)
                 (B2) (B2) (A1) (B1) (A2) (B1) (B1) (B2) (B1) (A2)
                 (A1) (A1) (B2) (A1) (B2) (A1) (A1)
 The electronic state is 1-A1.
 Alpha  occ. eigenvalues --  -15.52266  -1.13301  -0.65825  -0.65825  -0.39233
 Alpha virt. eigenvalues --    0.11818   0.14756   0.14756   0.19692   0.28580
 Alpha virt. eigenvalues --    0.29036   0.29036   0.65442   0.65443   0.72840
 Alpha virt. eigenvalues --    0.93782   0.93783   1.00644   1.06097   1.13723
 Alpha virt. eigenvalues --    1.13724   1.49884   1.56917   1.56919   1.71944
 Alpha virt. eigenvalues --    2.04001   2.18315   2.18317   2.27521   2.27525
 Alpha virt. eigenvalues --    2.58615   2.79389   2.79391   3.06007   3.14291
 Alpha virt. eigenvalues --    3.14291   4.20616   4.20616   4.24881   4.36036
 Alpha virt. eigenvalues --    4.36042   4.47446   4.72904   5.26086   5.26087
 Alpha virt. eigenvalues --    5.38754   5.42113   5.51754   5.51754   6.13669
 Alpha virt. eigenvalues --    6.13678  37.26944
          Condensed to atoms (all electrons):
              1          2          3          4
     1  N    6.664408   0.387050   0.387050   0.387052
     2  H    0.387050   0.382785  -0.022510  -0.022513
     3  H    0.387050  -0.022510   0.382785  -0.022513
     4  H    0.387052  -0.022513  -0.022513   0.382791
 Mulliken atomic charges:
              1
     1  N   -0.825561
     2  H    0.275189
     3  H    0.275189
     4  H    0.275184
 Sum of Mulliken atomic charges =   0.00000
 Mulliken charges with hydrogens summed into heavy atoms:
              1
     1  N    0.000000
 Sum of Mulliken charges with hydrogens summed into heavy atoms =   0.00000
 Electronic spatial extent (au):  <R**2>=             26.2824
 Charge=              0.0000 electrons
 Dipole moment (field-independent basis, Debye):
    X=              0.0000    Y=              0.0000    Z=              0.0000  Tot=              0.0000
 Quadrupole moment (field-independent basis, Debye-Ang):
   XX=             -9.9795   YY=             -5.6749   ZZ=             -5.6752
   XY=              0.0000   XZ=              0.0000   YZ=              0.0000
 Traceless Quadrupole moment (field-independent basis, Debye-Ang):
   XX=             -2.8696   YY=              1.4349   ZZ=              1.4347
   XY=              0.0000   XZ=              0.0000   YZ=              0.0000
 Octapole moment (field-independent basis, Debye-Ang**2):
  XXX=              0.0000  YYY=              0.0000  ZZZ=             -1.2780  XYY=              0.0000
  XXY=              0.0000  XXZ=              0.0000  XZZ=              0.0000  YZZ=              0.0000
  YYZ=              1.2781  XYZ=              0.0000
 Hexadecapole moment (field-independent basis, Debye-Ang**3):
 XXXX=            -12.6273 YYYY=             -9.1164 ZZZZ=             -9.1165 XXXY=              0.0000
 XXXZ=              0.0000 YYYX=              0.0000 YYYZ=              0.0000 ZZZX=              0.0000
 ZZZY=              0.0000 XXYY=             -4.0624 XXZZ=             -4.0624 YYZZ=             -3.0388
 XXYZ=              0.0000 YYXZ=              0.0000 ZZXY=              0.0000
 N-N= 1.219482156568D+01 E-N=-1.562776246339D+02  KE= 5.619901762676D+01
 Symmetry A1   KE= 5.053875153922D+01
 Symmetry A2   KE= 9.981089346661D-35
 Symmetry B1   KE= 3.007773174337D+00
 Symmetry B2   KE= 2.652492913204D+00
 1\1\GINC-RESEARCH029\FOpt\RHF\6-311+G(2df,p)\H3N1\RMCCULL2HS2\29-May-2
 015\0\\# HF/6-311+G(2df,p) Opt Freq\\title\\0,1\N,0.,0.,-0.1016480203\
 H,0.,0.8542888084,-0.5948463054\H,0.,-0.8542888084,-0.5948463054\H,0.,
 0.,0.8847586311\\Version=EM64L-G09RevA.02\State=1-A1\HF=-56.2089861\RM
 SD=1.710e-09\RMSF=1.156e-05\Dipole=0.,0.,0.0000021\Quadrupole=-2.13346
 79,1.0668365,1.0666314,0.,0.,0.\PG=C02V [C2(H1N1),SGV(H2)]\\@


 HOW IS IT THAT THE SKY FEEDS THE STARS?

                           -- LUCRETIUS
 Job cpu time:  0 days  0 hours  1 minutes 16.9 seconds.
 File lengths (MBytes):  RWF=      5 Int=      0 D2E=      0 Chk=      1 Scr=      1
 Normal termination of Gaussian 09 at Fri May 29 11:04:39 2015.
 Link1:  Proceeding to internal job step number  2.
 ----------------------------------------------------------------------
 #N Geom=AllCheck Guess=TCheck SCRF=Check GenChk RHF/6-311+G(2df,p) Fre
 q
 ----------------------------------------------------------------------
 1/10=4,29=7,30=1,38=1,40=1/1,3;
 2/12=2,40=1/2;
 3/5=4,6=6,7=114,11=1,14=-4,16=1,25=1,30=1,70=2,71=2,116=1/1,2,3;
 4/5=101/1;
 5/5=2,98=1/2;
 8/6=4,10=90,11=11/1;
 10/13=10,15=4/2;
 11/6=3,8=1,9=11,15=111,16=1/1,2,10;
 10/6=1/2;
 6/7=2,8=2,9=2,10=2,18=1,28=1/1;
 7/8=1,10=1,25=1/1,2,3,16;
 1/10=4,30=1/3;
 99//99;
 -----
 title
 -----
 Redundant internal coordinates taken from checkpoint file:
 fsasadsaddsh.chk
 Charge =  0 Multiplicity = 1
 N,0,0.,0.,-0.1016480203
 H,0,0.,0.8542888084,-0.5948463054
 H,0,0.,-0.8542888084,-0.5948463054
 H,0,0.,0.,0.8847586311
 Recover connectivity data from disk.

 GradGradGradGradGradGradGradGradGradGradGradGradGradGradGradGradGradGrad
 Berny optimization.
 Initialization pass.
                           ----------------------------
                           !    Initial Parameters    !
                           ! (Angstroms and Degrees)  !
 --------------------------                            --------------------------
 ! Name  Definition              Value          Derivative Info.                !
 --------------------------------------------------------------------------------
 ! R1    R(1,2)                  0.9864         calculate D2E/DX2 analytically  !
 ! R2    R(1,3)                  0.9864         calculate D2E/DX2 analytically  !
 ! R3    R(1,4)                  0.9864         calculate D2E/DX2 analytically  !
 ! A1    A(2,1,3)              120.0026         calculate D2E/DX2 analytically  !
 ! A2    A(2,1,4)              119.9987         calculate D2E/DX2 analytically  !
 ! A3    A(3,1,4)              119.9987         calculate D2E/DX2 analytically  !
 ! D1    D(2,1,4,3)            180.0            calculate D2E/DX2 analytically  !
 --------------------------------------------------------------------------------
 Trust Radius=3.00D-01 FncErr=1.00D-07 GrdErr=1.00D-07
 Number of steps in this run=   2 maximum allowed number of steps=   2.
 GradGradGradGradGradGradGradGradGradGradGradGradGradGradGradGradGradGrad

                          Input orientation:                          
 ---------------------------------------------------------------------
 Center     Atomic      Atomic             Coordinates (Angstroms)
 Number     Number       Type             X           Y           Z
 ---------------------------------------------------------------------
      1          7           0        0.000000    0.000000   -0.101648
      2          1           0        0.000000    0.854289   -0.594846
      3          1           0        0.000000   -0.854289   -0.594846
      4          1           0        0.000000    0.000000    0.884759
 ---------------------------------------------------------------------
                    Distance matrix (angstroms):
                    1          2          3          4
     1  N    0.000000
     2  H    0.986435   0.000000
     3  H    0.986435   1.708578   0.000000
     4  H    0.986407   1.708520   1.708520   0.000000
 Stoichiometry    H3N
 Framework group  C2V[C2(HN),SGV(H2)]
 Deg. of freedom     3
 Full point group                 C2V     NOp   4
 Largest Abelian subgroup         C2V     NOp   4
 Largest concise Abelian subgroup C2      NOp   2
                         Standard orientation:                         
 ---------------------------------------------------------------------
 Center     Atomic      Atomic             Coordinates (Angstroms)
 Number     Number       Type             X           Y           Z
 ---------------------------------------------------------------------
      1          7           0        0.000000    0.000000    0.000001
      2          1           0        0.000000    0.854289    0.493199
      3          1           0        0.000000   -0.854289    0.493199
      4          1           0        0.000000    0.000000   -0.986406
 ---------------------------------------------------------------------
 Rotational constants (GHZ):    343.5830801    343.5521125    171.7837978
 Standard basis: 6-311+G(2df,p) (5D, 7F)
 There are    24 symmetry adapted basis functions of A1  symmetry.
 There are     4 symmetry adapted basis functions of A2  symmetry.
 There are    10 symmetry adapted basis functions of B1  symmetry.
 There are    14 symmetry adapted basis functions of B2  symmetry.
 Integral buffers will be    131072 words long.
 Raffenetti 1 integral format.
 Two-electron integral symmetry is turned on.
    52 basis functions,    76 primitive gaussians,    57 cartesian basis functions
     5 alpha electrons        5 beta electrons
       nuclear repulsion energy        12.1948215657 Hartrees.
 NAtoms=    4 NActive=    4 NUniq=    3 SFac= 1.33D+00 NAtFMM=   80 NAOKFM=F Big=F
 One-electron integrals computed using PRISM.
 NBasis=    52 RedAO= T  NBF=    24     4    10    14
 NBsUse=    52 1.00D-06 NBFU=    24     4    10    14
 Initial guess read from the checkpoint file:  fsasadsaddsh.chk
 B after Tr=     0.000000    0.000000    0.000000
         Rot=    1.000000    0.000000    0.000000    0.000000 Ang=   0.00 deg.
 Initial guess orbital symmetries:
       Occupied  (A1) (A1) (B2) (A1) (B1)
       Virtual   (A1) (B2) (A1) (B1) (A1) (A1) (B2) (A1) (B2) (A1)
                 (B2) (A1) (B1) (A1) (A2) (B1) (A1) (B2) (A1) (B2)
                 (B1) (B1) (A2) (A1) (B2) (A1) (B2) (A1) (A1) (A1)
                 (B2) (B2) (A1) (B1) (A2) (B1) (B1) (B2) (B1) (A2)
                 (A1) (A1) (B2) (A1) (B2) (A1) (A1)
 Requested convergence on RMS density matrix=1.00D-08 within 128 cycles.
 Requested convergence on MAX density matrix=1.00D-06.
 Requested convergence on             energy=1.00D-06.
 No special actions if energy rises.
 Keep R1 ints in memory in canonical form, NReq=3335928.
 SCF Done:  E(RHF) =  -56.2089860508     A.U. after    1 cycles
             Convg  =    0.1140D-09             -V/T =  2.0002
 Range of M.O.s used for correlation:     1    52
 NBasis=    52 NAE=     5 NBE=     5 NFC=     0 NFV=     0
 NROrb=     52 NOA=     5 NOB=     5 NVA=    47 NVB=    47
          Differentiating once with respect to electric field.
                with respect to dipole field.
          Electric field/nuclear overlap derivatives assumed to be zero.
          Keep R1 ints in memory in canonical form, NReq=3307796.
          There are     3 degrees of freedom in the 1st order CPHF.  IDoFFX=0.
      3 vectors produced by pass  0 Test12= 7.83D-15 3.33D-08 XBig12= 2.94D+00 1.37D+00.
 AX will form     3 AO Fock derivatives at one time.
      3 vectors produced by pass  1 Test12= 7.83D-15 3.33D-08 XBig12= 1.38D-01 2.00D-01.
      3 vectors produced by pass  2 Test12= 7.83D-15 3.33D-08 XBig12= 2.31D-03 3.51D-02.
      3 vectors produced by pass  3 Test12= 7.83D-15 3.33D-08 XBig12= 4.69D-05 2.76D-03.
      3 vectors produced by pass  4 Test12= 7.83D-15 3.33D-08 XBig12= 3.75D-07 3.00D-04.
      3 vectors produced by pass  5 Test12= 7.83D-15 3.33D-08 XBig12= 1.35D-09 1.79D-05.
      3 vectors produced by pass  6 Test12= 7.83D-15 3.33D-08 XBig12= 5.66D-12 1.29D-06.
      3 vectors produced by pass  7 Test12= 7.83D-15 3.33D-08 XBig12= 1.12D-13 1.45D-07.
 Inverted reduced A of dimension    24 with in-core refinement.
 End of Minotr Frequency-dependent properties file   721 does not exist.
 End of Minotr Frequency-dependent properties file   722 does not exist.
 Symmetrizing basis deriv contribution to polar:
 IMax=3 JMax=2 DiffMx= 0.00D+00
 G2DrvN: will do     5 centers at a time, making    1 passes doing MaxLOS=3.
 Calling FoFCou, ICntrl=  3107 FMM=F I1Cent=   0 AccDes= 0.00D+00.
 FoFDir/FoFCou used for L=0 through L=3.
 End of G2Drv Frequency-dependent properties file   721 does not exist.
 End of G2Drv Frequency-dependent properties file   722 does not exist.
          IDoAtm=1111
          Differentiating once with respect to electric field.
                with respect to dipole field.
          Differentiating once with respect to nuclear coordinates.
          Keep R1 ints in memory in canonical form, NReq=3307880.
          There are    12 degrees of freedom in the 1st order CPHF.  IDoFFX=4.
 Will reuse    3 saved solutions.
      9 vectors produced by pass  0 Test12= 1.96D-15 8.33D-09 XBig12= 3.08D-02 8.59D-02.
 AX will form     9 AO Fock derivatives at one time.
      9 vectors produced by pass  1 Test12= 1.96D-15 8.33D-09 XBig12= 8.48D-04 1.36D-02.
      9 vectors produced by pass  2 Test12= 1.96D-15 8.33D-09 XBig12= 2.56D-05 2.62D-03.
      9 vectors produced by pass  3 Test12= 1.96D-15 8.33D-09 XBig12= 4.70D-07 3.70D-04.
      9 vectors produced by pass  4 Test12= 1.96D-15 8.33D-09 XBig12= 1.62D-08 7.43D-05.
      9 vectors produced by pass  5 Test12= 1.96D-15 8.33D-09 XBig12= 4.68D-11 4.07D-06.
      6 vectors produced by pass  6 Test12= 1.96D-15 8.33D-09 XBig12= 1.72D-13 1.49D-07.
      2 vectors produced by pass  7 Test12= 1.96D-15 8.33D-09 XBig12= 8.80D-16 1.19D-08.
 Inverted reduced A of dimension    62 with in-core refinement.
 Isotropic polarizability for W=    0.000000       10.36 Bohr**3.
 End of Minotr Frequency-dependent properties file   721 does not exist.
 End of Minotr Frequency-dependent properties file   722 does not exist.

 **********************************************************************

            Population analysis using the SCF density.

 **********************************************************************

 Orbital symmetries:
       Occupied  (A1) (A1) (B2) (A1) (B1)
       Virtual   (A1) (B2) (A1) (B1) (A1) (A1) (B2) (A1) (B2) (A1)
                 (B2) (A1) (B1) (A1) (A2) (B1) (A1) (B2) (A1) (B2)
                 (B1) (B1) (A2) (A1) (B2) (A1) (B2) (A1) (A1) (A1)
                 (B2) (B2) (A1) (B1) (A2) (B1) (B1) (B2) (B1) (A2)
                 (A1) (A1) (B2) (A1) (B2) (A1) (A1)
 The electronic state is 1-A1.
 Alpha  occ. eigenvalues --  -15.52266  -1.13301  -0.65825  -0.65825  -0.39233
 Alpha virt. eigenvalues --    0.11818   0.14756   0.14756   0.19692   0.28580
 Alpha virt. eigenvalues --    0.29036   0.29036   0.65442   0.65443   0.72840
 Alpha virt. eigenvalues --    0.93782   0.93783   1.00644   1.06097   1.13723
 Alpha virt. eigenvalues --    1.13724   1.49884   1.56917   1.56919   1.71944
 Alpha virt. eigenvalues --    2.04001   2.18315   2.18317   2.27521   2.27525
 Alpha virt. eigenvalues --    2.58615   2.79389   2.79391   3.06007   3.14291
 Alpha virt. eigenvalues --    3.14291   4.20616   4.20616   4.24881   4.36036
 Alpha virt. eigenvalues --    4.36042   4.47446   4.72904   5.26086   5.26087
 Alpha virt. eigenvalues --    5.38754   5.42113   5.51754   5.51754   6.13669
 Alpha virt. eigenvalues --    6.13678  37.26944
          Condensed to atoms (all electrons):
              1          2          3          4
     1  N    6.664408   0.387050   0.387050   0.387052
     2  H    0.387050   0.382785  -0.022510  -0.022513
     3  H    0.387050  -0.022510   0.382785  -0.022513
     4  H    0.387052  -0.022513  -0.022513   0.382791
 Mulliken atomic charges:
              1
     1  N   -0.825561
     2  H    0.275189
     3  H    0.275189
     4  H    0.275184
 Sum of Mulliken atomic charges =   0.00000
 Mulliken charges with hydrogens summed into heavy atoms:
              1
     1  N    0.000000
 Sum of Mulliken charges with hydrogens summed into heavy atoms =   0.00000
 APT atomic charges:
              1
     1  N   -0.696152
     2  H    0.232054
     3  H    0.232054
     4  H    0.232043
 Sum of APT charges=   0.00000
 APT Atomic charges with hydrogens summed into heavy atoms:
              1
     1  N    0.000000
     2  H    0.000000
     3  H    0.000000
     4  H    0.000000
 Sum of APT charges=   0.00000
 Electronic spatial extent (au):  <R**2>=             26.2824
 Charge=              0.0000 electrons
 Dipole moment (field-independent basis, Debye):
    X=              0.0000    Y=              0.0000    Z=              0.0000  Tot=              0.0000
 Quadrupole moment (field-independent basis, Debye-Ang):
   XX=             -9.9795   YY=             -5.6749   ZZ=             -5.6752
   XY=              0.0000   XZ=              0.0000   YZ=              0.0000
 Traceless Quadrupole moment (field-independent basis, Debye-Ang):
   XX=             -2.8696   YY=              1.4349   ZZ=              1.4347
   XY=              0.0000   XZ=              0.0000   YZ=              0.0000
 Octapole moment (field-independent basis, Debye-Ang**2):
  XXX=              0.0000  YYY=              0.0000  ZZZ=             -1.2780  XYY=              0.0000
  XXY=              0.0000  XXZ=              0.0000  XZZ=              0.0000  YZZ=              0.0000
  YYZ=              1.2781  XYZ=              0.0000
 Hexadecapole moment (field-independent basis, Debye-Ang**3):
 XXXX=            -12.6273 YYYY=             -9.1164 ZZZZ=             -9.1165 XXXY=              0.0000
 XXXZ=              0.0000 YYYX=              0.0000 YYYZ=              0.0000 ZZZX=              0.0000
 ZZZY=              0.0000 XXYY=             -4.0624 XXZZ=             -4.0624 YYZZ=             -3.0388
 XXYZ=              0.0000 YYXZ=              0.0000 ZZXY=              0.0000
 N-N= 1.219482156568D+01 E-N=-1.562776246277D+02  KE= 5.619901762455D+01
 Symmetry A1   KE= 5.053875152984D+01
 Symmetry A2   KE= 7.427007756680D-35
 Symmetry B1   KE= 3.007773180904D+00
 Symmetry B2   KE= 2.652492913811D+00
  Exact polarizability:  11.942   0.000   9.571   0.000   0.000   9.570
 Approx polarizability:   8.990   0.000   8.229   0.000   0.000   8.229
 Calling FoFJK, ICntrl=    100127 FMM=F ISym2X=1 I1Cent= 0 IOpClX= 0 NMat=1 NMatS=1 NMatT=0.
 Full mass-weighted force constant matrix:
 Low frequencies --- -861.7011  -18.5449  -12.6126   -0.0011   -0.0006    0.0008
 Low frequencies ---    5.0609 1699.5027 1699.5205
 ******    1 imaginary frequencies (negative Signs) ****** 
 Diagonal vibrational polarizability:
       17.2177930       0.4692936       0.4693570
 Diagonal vibrational hyperpolarizability:
        0.0000000       0.0000000      -0.1288483
 Harmonic frequencies (cm**-1), IR intensities (KM/Mole), Raman scattering
 activities (A**4/AMU), depolarization ratios for plane and unpolarized
 incident light, reduced masses (AMU), force constants (mDyne/A),
 and normal coordinates:
                     1                      2                      3
                    B1                     B2                     A1
 Frequencies --  -861.7010              1699.5027              1699.5205
 Red. masses --     1.2067                 1.0920                 1.0920
 Frc consts  --     0.5279                 1.8583                 1.8584
 IR Inten    --   475.0700                40.4959                40.5066
 Raman Activ --     0.0000                 0.8107                 0.8110
 Depolar (P) --     0.7500                 0.7500                 0.7500
 Depolar (U) --     0.8571                 0.8571                 0.8571
  Atom  AN      X      Y      Z        X      Y      Z        X      Y      Z
     1   7     0.12   0.00   0.00     0.00   0.08   0.00     0.00   0.00   0.08
     2   1    -0.57   0.00   0.00     0.00  -0.15   0.38     0.00   0.38  -0.59
     3   1    -0.57   0.00   0.00     0.00  -0.15  -0.38     0.00  -0.38  -0.59
     4   1    -0.57   0.00   0.00     0.00  -0.81   0.00     0.00   0.00   0.07
                     4                      5                      6
                    A1                     B2                     A1
 Frequencies --  3809.1468              4022.7971              4023.0159
 Red. masses --     1.0078                 1.1047                 1.1047
 Frc consts  --     8.6157                10.5329                10.5340
 IR Inten    --     0.0000                55.3130                55.3017
 Raman Activ --   109.3559                22.5388                22.5405
 Depolar (P) --     0.0646                 0.7500                 0.7500
 Depolar (U) --     0.1214                 0.8571                 0.8571
  Atom  AN      X      Y      Z        X      Y      Z        X      Y      Z
     1   7     0.00   0.00   0.00     0.00   0.09   0.00     0.00   0.00   0.09
     2   1     0.00  -0.50  -0.29     0.00  -0.61  -0.36     0.00  -0.36  -0.19
     3   1     0.00   0.50  -0.29     0.00  -0.61   0.36     0.00   0.36  -0.19
     4   1     0.00   0.00   0.58     0.00   0.01   0.00     0.00   0.00  -0.81

 -------------------
 - Thermochemistry -
 -------------------
 Temperature   298.150 Kelvin.  Pressure   1.00000 Atm.
 Atom     1 has atomic number  7 and mass  14.00307
 Atom     2 has atomic number  1 and mass   1.00783
 Atom     3 has atomic number  1 and mass   1.00783
 Atom     4 has atomic number  1 and mass   1.00783
 Molecular mass:    17.02655 amu.
 Principal axes and moments of inertia in atomic units:
                           1         2         3
     Eigenvalues --     5.25271   5.25318  10.50589
           X            0.00000   0.00000   1.00000
           Y            1.00000   0.00000   0.00000
           Z            0.00000   1.00000   0.00000
 This molecule is an asymmetric top.
 Rotational symmetry number  2.
 Rotational temperatures (Kelvin)     16.48937    16.48788     8.24431
 Rotational constants (GHZ):         343.58308   343.55211   171.78380
    1 imaginary frequencies ignored.
 Zero-point vibrational energy      91239.1 (Joules/Mol)
                                   21.80666 (Kcal/Mol)
 Vibrational temperatures:   2445.20  2445.23  5480.51  5787.90  5788.22
          (Kelvin)
 
 Zero-point correction=                           0.034751 (Hartree/Particle)
 Thermal correction to Energy=                    0.037588
 Thermal correction to Enthalpy=                  0.038532
 Thermal correction to Gibbs Free Energy=         0.016434
 Sum of electronic and zero-point Energies=            -56.174235
 Sum of electronic and thermal Energies=               -56.171398
 Sum of electronic and thermal Enthalpies=             -56.170454
 Sum of electronic and thermal Free Energies=          -56.192552
 
                     E (Thermal)             CV                S
                      KCal/Mol        Cal/Mol-Kelvin    Cal/Mol-Kelvin
 Total                   23.587              6.035             46.510
 Electronic               0.000              0.000              0.000
 Translational            0.889              2.981             34.441
 Rotational               0.889              2.981             12.059
 Vibrational             21.809              0.073              0.010
                       Q            Log10(Q)             Ln(Q)
 Total Bot       0.276021D-07         -7.559057        -17.405372
 Total V=0       0.266268D+09          8.425319         19.400014
 Vib (Bot)       0.103720D-15        -15.984138        -36.804838
 Vib (V=0)       0.100055D+01          0.000238          0.000549
 Electronic      0.100000D+01          0.000000          0.000000
 Translational   0.276150D+07          6.441145         14.831285
 Rotational      0.963686D+02          1.983936          4.568180
 ***** Axes restored to original set *****
 -------------------------------------------------------------------
 Center     Atomic                   Forces (Hartrees/Bohr)
 Number     Number              X              Y              Z
 -------------------------------------------------------------------
      1        7           0.000000000    0.000000000   -0.000022962
      2        1           0.000000000   -0.000001582   -0.000004569
      3        1           0.000000000    0.000001582   -0.000004569
      4        1           0.000000000    0.000000000    0.000032100
 -------------------------------------------------------------------
 Cartesian Forces:  Max     0.000032100 RMS     0.000011563

 GradGradGradGradGradGradGradGradGradGradGradGradGradGradGradGradGradGrad
 Berny optimization.
 Internal  Forces:  Max     0.000032100 RMS     0.000012446
 Search for a local minimum.
 Step number   1 out of a maximum of    2
 All quantities printed in internal units (Hartrees-Bohrs-Radians)
 Second derivative matrix not updated -- analytic derivatives used.
 The second derivative matrix:
                          R1        R2        R3        A1        A2
           R1           0.55738
           R2          -0.00201   0.55738
           R3          -0.00201  -0.00201   0.55748
           A1           0.00626   0.00626  -0.01253   0.07761
           A2           0.00626  -0.01252   0.00626  -0.03881   0.07762
           A3          -0.01252   0.00626   0.00626  -0.03881  -0.03881
           D1           0.00000   0.00000   0.00000   0.00000   0.00000
                          A3        D1
           A3           0.07762
           D1           0.00000  -0.02023
     Eigenvalues ---   -0.02023   0.11562   0.11563   0.55339   0.56019
     Eigenvalues ---    0.560251000.00000
 Eigenvalue     1 is  -2.02D-02 should be greater than     0.000000 Eigenvector:
                          D1        A1        R2        A2        R3
   1                    1.00000   0.00000   0.00000   0.00000   0.00000
                          A3        R1
   1                    0.00000   0.00000
 Angle between quadratic step and forces=  31.74 degrees.
 Linear search not attempted -- first point.
 Iteration  1 RMS(Cart)=  0.00003065 RMS(Int)=  0.00000000
 Iteration  2 RMS(Cart)=  0.00000000 RMS(Int)=  0.00000000
 ClnCor:  largest displacement from symmetrization is 4.90D-12 for atom     1.
 Variable       Old X    -DE/DX   Delta X   Delta X   Delta X     New X
                                 (Linear)    (Quad)   (Total)
    R1        1.86409   0.00000   0.00000   0.00000   0.00000   1.86409
    R2        1.86409   0.00000   0.00000   0.00000   0.00000   1.86409
    R3        1.86404   0.00003   0.00000   0.00006   0.00006   1.86409
    A1        2.09444  -0.00001   0.00000  -0.00004  -0.00004   2.09440
    A2        2.09437   0.00000   0.00000   0.00002   0.00002   2.09440
    A3        2.09437   0.00000   0.00000   0.00002   0.00002   2.09440
    D1        3.14159   0.00000   0.00000   0.00000   0.00000   3.14159
         Item               Value     Threshold  Converged?
 Maximum Force            0.000032     0.000450     YES
 RMS     Force            0.000012     0.000300     YES
 Maximum Displacement     0.000061     0.001800     YES
 RMS     Displacement     0.000031     0.001200     YES
 Predicted change in Energy=-1.101419D-09
 Optimization completed.
    -- Stationary point found.
                           ----------------------------
                           !   Optimized Parameters   !
                           ! (Angstroms and Degrees)  !
 --------------------------                            --------------------------
 ! Name  Definition              Value          Derivative Info.                !
 --------------------------------------------------------------------------------
 ! R1    R(1,2)                  0.9864         -DE/DX =    0.0                 !
 ! R2    R(1,3)                  0.9864         -DE/DX =    0.0                 !
 ! R3    R(1,4)                  0.9864         -DE/DX =    0.0                 !
 ! A1    A(2,1,3)              120.0026         -DE/DX =    0.0                 !
 ! A2    A(2,1,4)              119.9987         -DE/DX =    0.0                 !
 ! A3    A(3,1,4)              119.9987         -DE/DX =    0.0                 !
 ! D1    D(2,1,4,3)            180.0            -DE/DX =    0.0                 !
 --------------------------------------------------------------------------------
 GradGradGradGradGradGradGradGradGradGradGradGradGradGradGradGradGradGrad

 1\1\GINC-RESEARCH029\Freq\RHF\6-311+G(2df,p)\H3N1\RMCCULL2HS2\29-May-2
 015\0\\#N Geom=AllCheck Guess=TCheck SCRF=Check GenChk RHF/6-311+G(2df
 ,p) Freq\\title\\0,1\N,0.,0.,-0.1016480203\H,0.,0.8542888084,-0.594846
 3054\H,0.,-0.8542888084,-0.5948463054\H,0.,0.,0.8847586311\\Version=EM
 64L-G09RevA.02\State=1-A1\HF=-56.2089861\RMSD=1.140e-10\RMSF=1.156e-05
 \ZeroPoint=0.0347511\Thermal=0.0375879\Dipole=0.,0.,0.0000021\DipoleDe
 riv=-1.1007907,0.,0.,0.,-0.4938316,0.,0.,0.,-0.4938326,0.3669311,0.,0.
 ,0.,0.1687434,-0.0071435,0.,-0.0071576,0.160489,0.3669311,0.,0.,0.,0.1
 687434,0.0071435,0.,0.0071576,0.160489,0.3669285,0.,0.,0.,0.1563449,0.
 ,0.,0.,0.1728547\Polar=11.9415177,0.,9.5705279,0.,0.,9.5701279\PolarDe
 riv=0.,0.,0.,0.0002398,0.,0.,0.,0.,0.,0.,3.4987375,0.,-0.0001021,0.,3.
 4987132,0.,0.,-3.4987213,0.,-0.7343382,0.,0.423981,0.,0.,0.8113547,0.,
 5.0051062,0.,-2.0479356,1.9503628,-0.4684016,0.,-2.2923154,0.,1.527179
 8,-1.7232284,0.,0.7343382,0.,0.423981,0.,0.,-0.8113547,0.,-5.0051062,0
 .,-2.0479356,-1.9503628,-0.4684016,0.,-2.2923154,0.,-1.5271798,-1.7232
 284,0.,0.,0.,-0.8482018,0.,0.,0.,0.,0.,0.,0.5971338,0.,0.9369054,0.,1.
 0859176,0.,0.,6.945178\HyperPolar=0.,0.,0.,0.,0.0011984,0.,-10.5261472
 ,0.,0.,10.5251951\PG=C02V [C2(H1N1),SGV(H2)]\NImag=1\\-0.06987275,0.,0
 .93748372,0.,0.,0.93756101,0.02328689,0.,0.,-0.00776265,0.,-0.42722058
 ,0.19869690,0.,0.43479173,0.,0.19869336,-0.19776673,0.,-0.21233390,0.1
 8959346,0.02328689,0.,0.,-0.00776363,0.,0.,-0.00776265,0.,-0.42722058,
 -0.19869690,0.,-0.01559415,-0.02041643,0.,0.43479173,0.,-0.19869336,-0
 .19776673,0.,0.02041643,0.01589703,0.,0.21233390,0.18959346,0.02329897
 ,0.,0.,-0.00776061,0.,0.,-0.00776061,0.,0.,-0.00777775,0.,-0.08304256,
 0.,0.,0.00802300,0.03405696,0.,0.00802301,-0.03405696,0.,0.06699655,0.
 ,0.,-0.54202755,0.,-0.00677943,-0.00772376,0.,0.00677943,-0.00772376,0
 .,0.,0.55747507\\0.,0.,0.00002296,0.,0.00000158,0.00000457,0.,-0.00000
 158,0.00000457,0.,0.,-0.00003210\\\@


 A warm smile is the universal language of kindness.
                             -- William Arthur Ward
 Job cpu time:  0 days  0 hours  0 minutes 30.8 seconds.
 File lengths (MBytes):  RWF=      5 Int=      0 D2E=      0 Chk=      1 Scr=      1
 Normal termination of Gaussian 09 at Fri May 29 11:04:43 2015.
