 Entering Gaussian System, Link 0=g09
 Input=Gas-HF-6-311+G2dfp-Freq-Opt-CH3NH2.inp
 Output=Gas-HF-6-311+G2dfp-Freq-Opt-CH3NH2.log
 Initial command:
 /usr/local/g09/l1.exe /local/gaussian-tmp/3702327/Gau-8160.inp -scrdir=/local/gaussian-tmp/3702327/
 Entering Link 1 = /usr/local/g09/l1.exe PID=      8161.
  
 Copyright (c) 1988,1990,1992,1993,1995,1998,2003,2009, Gaussian, Inc.
                  All Rights Reserved.
  
 This is part of the Gaussian(R) 09 program.  It is based on
 the Gaussian(R) 03 system (copyright 2003, Gaussian, Inc.),
 the Gaussian(R) 98 system (copyright 1998, Gaussian, Inc.),
 the Gaussian(R) 94 system (copyright 1995, Gaussian, Inc.),
 the Gaussian 92(TM) system (copyright 1992, Gaussian, Inc.),
 the Gaussian 90(TM) system (copyright 1990, Gaussian, Inc.),
 the Gaussian 88(TM) system (copyright 1988, Gaussian, Inc.),
 the Gaussian 86(TM) system (copyright 1986, Carnegie Mellon
 University), and the Gaussian 82(TM) system (copyright 1983,
 Carnegie Mellon University). Gaussian is a federally registered
 trademark of Gaussian, Inc.
  
 This software contains proprietary and confidential information,
 including trade secrets, belonging to Gaussian, Inc.
  
 This software is provided under written license and may be
 used, copied, transmitted, or stored only in accord with that
 written license.
  
 The following legend is applicable only to US Government
 contracts under FAR:
  
                    RESTRICTED RIGHTS LEGEND
  
 Use, reproduction and disclosure by the US Government is
 subject to restrictions as set forth in subparagraphs (a)
 and (c) of the Commercial Computer Software - Restricted
 Rights clause in FAR 52.227-19.
  
 Gaussian, Inc.
 340 Quinnipiac St., Bldg. 40, Wallingford CT 06492
  
  
 ---------------------------------------------------------------
 Warning -- This program may not be used in any manner that
 competes with the business of Gaussian, Inc. or will provide
 assistance to any competitor of Gaussian, Inc.  The licensee
 of this program is prohibited from giving any competitor of
 Gaussian, Inc. access to this program.  By using this program,
 the user acknowledges that Gaussian, Inc. is engaged in the
 business of creating and licensing software in the field of
 computational chemistry and represents and warrants to the
 licensee that it is not a competitor of Gaussian, Inc. and that
 it will not use this program in any manner prohibited above.
 ---------------------------------------------------------------
  

 Cite this work as:
 Gaussian 09, Revision A.02,
 M. J. Frisch, G. W. Trucks, H. B. Schlegel, G. E. Scuseria, 
 M. A. Robb, J. R. Cheeseman, G. Scalmani, V. Barone, B. Mennucci, 
 G. A. Petersson, H. Nakatsuji, M. Caricato, X. Li, H. P. Hratchian, 
 A. F. Izmaylov, J. Bloino, G. Zheng, J. L. Sonnenberg, M. Hada, 
 M. Ehara, K. Toyota, R. Fukuda, J. Hasegawa, M. Ishida, T. Nakajima, 
 Y. Honda, O. Kitao, H. Nakai, T. Vreven, J. A. Montgomery, Jr., 
 J. E. Peralta, F. Ogliaro, M. Bearpark, J. J. Heyd, E. Brothers, 
 K. N. Kudin, V. N. Staroverov, R. Kobayashi, J. Normand, 
 K. Raghavachari, A. Rendell, J. C. Burant, S. S. Iyengar, J. Tomasi, 
 M. Cossi, N. Rega, J. M. Millam, M. Klene, J. E. Knox, J. B. Cross, 
 V. Bakken, C. Adamo, J. Jaramillo, R. Gomperts, R. E. Stratmann, 
 O. Yazyev, A. J. Austin, R. Cammi, C. Pomelli, J. W. Ochterski, 
 R. L. Martin, K. Morokuma, V. G. Zakrzewski, G. A. Voth, 
 P. Salvador, J. J. Dannenberg, S. Dapprich, A. D. Daniels, 
 O. Farkas, J. B. Foresman, J. V. Ortiz, J. Cioslowski, 
 and D. J. Fox, Gaussian, Inc., Wallingford CT, 2009.
 
 ******************************************
 Gaussian 09:  EM64L-G09RevA.02 11-Jun-2009
                29-May-2015 
 ******************************************
 %chk=fsadshdsadsaadsads
 %mem=10GB
 %nproc=8
 Will use up to    8 processors via shared memory.
 ----------------------------
 # HF/6-311+G(2df,p) Opt Freq
 ----------------------------
 1/18=20,19=15,38=1/1,3;
 2/9=110,12=2,17=6,18=5,40=1/2;
 3/5=4,6=6,7=114,11=9,16=1,25=1,30=1,71=1/1,2,3;
 4//1;
 5/5=2,38=5/2;
 6/7=2,8=2,9=2,10=2,28=1/1;
 7//1,2,3,16;
 1/18=20,19=15/3(2);
 2/9=110/2;
 99//99;
 2/9=110/2;
 3/5=4,6=6,7=114,11=9,16=1,25=1,30=1,71=1/1,2,3;
 4/5=5,16=3/1;
 5/5=2,38=5/2;
 7//1,2,3,16;
 1/18=20,19=15/3(-5);
 2/9=110/2;
 6/7=2,8=2,9=2,10=2,19=2,28=1/1;
 99/9=1/99;
 -----
 title
 -----
 Symbolic Z-matrix:
 Charge =  0 Multiplicity = 1
 7                    -0.65824  -0.08665   0.00001 
 6                     1.152     0.02068   0.00001 
 1                     1.51245   0.52092   0.88671 
 1                     1.51778  -0.99673  -0.00116 
 1                     1.51217   0.52285  -0.88569 
 1                    -0.92259   1.21526   0.00002 
 1                    -1.26789  -0.87931  -0.00001 
 

 GradGradGradGradGradGradGradGradGradGradGradGradGradGradGradGradGradGrad
 Berny optimization.
 Initialization pass.
                           ----------------------------
                           !    Initial Parameters    !
                           ! (Angstroms and Degrees)  !
 --------------------------                            --------------------------
 ! Name  Definition              Value          Derivative Info.                !
 --------------------------------------------------------------------------------
 ! R1    R(1,2)                  1.8134         estimate D2E/DX2                !
 ! R2    R(1,6)                  1.3285         estimate D2E/DX2                !
 ! R3    R(1,7)                  1.0            estimate D2E/DX2                !
 ! R4    R(2,3)                  1.08           estimate D2E/DX2                !
 ! R5    R(2,4)                  1.0812         estimate D2E/DX2                !
 ! R6    R(2,5)                  1.08           estimate D2E/DX2                !
 ! A1    A(2,1,6)               98.0847         estimate D2E/DX2                !
 ! A2    A(2,1,7)              130.9576         estimate D2E/DX2                !
 ! A3    A(6,1,7)              130.9576         estimate D2E/DX2                !
 ! A4    A(1,2,3)              111.1359         estimate D2E/DX2                !
 ! A5    A(1,2,4)              106.3816         estimate D2E/DX2                !
 ! A6    A(1,2,5)              111.1266         estimate D2E/DX2                !
 ! A7    A(3,2,4)              108.8955         estimate D2E/DX2                !
 ! A8    A(3,2,5)              110.2822         estimate D2E/DX2                !
 ! A9    A(4,2,5)              108.8957         estimate D2E/DX2                !
 ! D1    D(6,1,2,3)             61.6694         estimate D2E/DX2                !
 ! D2    D(6,1,2,4)           -179.9365         estimate D2E/DX2                !
 ! D3    D(6,1,2,5)            -61.5471         estimate D2E/DX2                !
 ! D4    D(7,1,2,3)           -118.3306         estimate D2E/DX2                !
 ! D5    D(7,1,2,4)              0.0635         estimate D2E/DX2                !
 ! D6    D(7,1,2,5)            118.4529         estimate D2E/DX2                !
 --------------------------------------------------------------------------------
 Trust Radius=3.00D-01 FncErr=1.00D-07 GrdErr=1.00D-07
 Number of steps in this run=  31 maximum allowed number of steps= 100.
 GradGradGradGradGradGradGradGradGradGradGradGradGradGradGradGradGradGrad

                          Input orientation:                          
 ---------------------------------------------------------------------
 Center     Atomic      Atomic             Coordinates (Angstroms)
 Number     Number       Type             X           Y           Z
 ---------------------------------------------------------------------
      1          7           0       -0.658237   -0.086648    0.000005
      2          6           0        1.151998    0.020679    0.000007
      3          1           0        1.512451    0.520923    0.886707
      4          1           0        1.517779   -0.996731   -0.001158
      5          1           0        1.512168    0.522848   -0.885694
      6          1           0       -0.922587    1.215258    0.000024
      7          1           0       -1.267892   -0.879315   -0.000007
 ---------------------------------------------------------------------
                    Distance matrix (angstroms):
                    1          2          3          4          5
     1  N    0.000000
     2  C    1.813414   0.000000
     3  H    2.422245   1.080003   0.000000
     4  H    2.358664   1.081166   1.758296   0.000000
     5  H    2.422108   1.079983   1.772402   1.758282   0.000000
     6  H    1.328473   2.393934   2.682856   3.293673   2.681783
     7  H    1.000000   2.581832   3.236856   2.788145   3.237165
                    6          7
     6  H    0.000000
     7  H    2.122845   0.000000
 Stoichiometry    CH5N
 Framework group  C1[X(CH5N)]
 Deg. of freedom    15
 Full point group                 C1      NOp   1
 Largest Abelian subgroup         C1      NOp   1
 Largest concise Abelian subgroup C1      NOp   1
                         Standard orientation:                         
 ---------------------------------------------------------------------
 Center     Atomic      Atomic             Coordinates (Angstroms)
 Number     Number       Type             X           Y           Z
 ---------------------------------------------------------------------
      1          7           0       -0.919470   -0.043517    0.000008
      2          6           0        0.893642   -0.010386    0.000010
      3          1           0        1.274271    0.474682    0.886710
      4          1           0        1.217466   -1.041917   -0.001155
      5          1           0        1.274067    0.476617   -0.885691
      6          1           0       -1.130302    1.268119    0.000027
      7          1           0       -1.561064   -0.810562   -0.000004
 ---------------------------------------------------------------------
 Rotational constants (GHZ):     92.9378923     16.0542856     14.9736573
 Standard basis: 6-311+G(2df,p) (5D, 7F)
 There are    98 symmetry adapted basis functions of A   symmetry.
 Integral buffers will be    131072 words long.
 Raffenetti 1 integral format.
 Two-electron integral symmetry is turned on.
    98 basis functions,   144 primitive gaussians,   108 cartesian basis functions
     9 alpha electrons        9 beta electrons
       nuclear repulsion energy        36.9721066678 Hartrees.
 NAtoms=    7 NActive=    7 NUniq=    7 SFac= 7.50D-01 NAtFMM=   80 NAOKFM=F Big=F
 One-electron integrals computed using PRISM.
 NBasis=    98 RedAO= T  NBF=    98
 NBsUse=    98 1.00D-06 NBFU=    98
 Harris functional with IExCor=  205 diagonalized for initial guess.
 ExpMin= 4.38D-02 ExpMax= 6.29D+03 ExpMxC= 9.49D+02 IAcc=2 IRadAn=         0 AccDes= 0.00D+00
 HarFok:  IExCor=  205 AccDes= 0.00D+00 IRadAn=         0 IDoV= 1
 ScaDFX=  1.000000  1.000000  1.000000  1.000000
 FoFCou: FMM=F IPFlag=           0 FMFlag=      100000 FMFlg1=           0
         NFxFlg=           0 DoJE=T BraDBF=F KetDBF=T FulRan=T
         Omega=  0.000000  0.000000  1.000000  0.000000  0.000000 ICntrl=     500 IOpCl=  0
         NMat0=    1 NMatS0=    1 NMatT0=    0 NMatD0=    1 NMtDS0=    0 NMtDT0=    0
         I1Cent=           4 NGrid=           0.
 Petite list used in FoFCou.
 Initial guess orbital symmetries:
       Occupied  (A) (A) (A) (A) (A) (A) (A) (A) (A)
       Virtual   (A) (A) (A) (A) (A) (A) (A) (A) (A) (A) (A) (A)
                 (A) (A) (A) (A) (A) (A) (A) (A) (A) (A) (A) (A)
                 (A) (A) (A) (A) (A) (A) (A) (A) (A) (A) (A) (A)
                 (A) (A) (A) (A) (A) (A) (A) (A) (A) (A) (A) (A)
                 (A) (A) (A) (A) (A) (A) (A) (A) (A) (A) (A) (A)
                 (A) (A) (A) (A) (A) (A) (A) (A) (A) (A) (A) (A)
                 (A) (A) (A) (A) (A) (A) (A) (A) (A) (A) (A) (A)
                 (A) (A) (A) (A) (A)
 The electronic state of the initial guess is 1-A.
 Requested convergence on RMS density matrix=1.00D-08 within 128 cycles.
 Requested convergence on MAX density matrix=1.00D-06.
 Requested convergence on             energy=1.00D-06.
 No special actions if energy rises.
 Keep R1 ints in memory in canonical form, NReq=19320253.
 SCF Done:  E(RHF) =  -95.1150424721     A.U. after   12 cycles
             Convg  =    0.2693D-08             -V/T =  2.0079

 **********************************************************************

            Population analysis using the SCF density.

 **********************************************************************

 Orbital symmetries:
       Occupied  (A) (A) (A) (A) (A) (A) (A) (A) (A)
       Virtual   (A) (A) (A) (A) (A) (A) (A) (A) (A) (A) (A) (A)
                 (A) (A) (A) (A) (A) (A) (A) (A) (A) (A) (A) (A)
                 (A) (A) (A) (A) (A) (A) (A) (A) (A) (A) (A) (A)
                 (A) (A) (A) (A) (A) (A) (A) (A) (A) (A) (A) (A)
                 (A) (A) (A) (A) (A) (A) (A) (A) (A) (A) (A) (A)
                 (A) (A) (A) (A) (A) (A) (A) (A) (A) (A) (A) (A)
                 (A) (A) (A) (A) (A) (A) (A) (A) (A) (A) (A) (A)
                 (A) (A) (A) (A) (A)
 The electronic state is 1-A.
 Alpha  occ. eigenvalues --  -15.55695 -11.27866  -1.05228  -0.91671  -0.60728
 Alpha  occ. eigenvalues --   -0.58216  -0.55956  -0.44670  -0.36089
 Alpha virt. eigenvalues --    0.07015   0.07886   0.10398   0.11157   0.16828
 Alpha virt. eigenvalues --    0.19481   0.20395   0.23427   0.25124   0.28108
 Alpha virt. eigenvalues --    0.28222   0.31137   0.34076   0.36756   0.52911
 Alpha virt. eigenvalues --    0.54089   0.57475   0.62900   0.70970   0.77096
 Alpha virt. eigenvalues --    0.79311   0.82334   0.84916   0.89873   0.95668
 Alpha virt. eigenvalues --    0.99818   1.05086   1.09627   1.12645   1.20998
 Alpha virt. eigenvalues --    1.28596   1.32916   1.38036   1.44742   1.46269
 Alpha virt. eigenvalues --    1.58155   1.71296   1.80572   1.85304   1.93168
 Alpha virt. eigenvalues --    1.97974   2.01691   2.12026   2.12187   2.18256
 Alpha virt. eigenvalues --    2.42991   2.49310   2.49408   2.51244   2.58265
 Alpha virt. eigenvalues --    2.64166   2.68641   2.68896   2.83180   2.86580
 Alpha virt. eigenvalues --    2.91400   2.97242   3.30227   3.36252   3.44048
 Alpha virt. eigenvalues --    3.54578   3.54979   3.64694   3.69158   3.72083
 Alpha virt. eigenvalues --    3.76375   3.96356   3.96367   3.99239   4.11800
 Alpha virt. eigenvalues --    4.26706   4.32763   4.32767   4.36473   4.49873
 Alpha virt. eigenvalues --    4.51096   4.56074   4.90863   5.06597   5.09007
 Alpha virt. eigenvalues --    5.11168   5.33645   5.48404   5.56579   5.66610
 Alpha virt. eigenvalues --    5.80641   6.00276  25.33811  36.96062
          Condensed to atoms (all electrons):
              1          2          3          4          5          6
     1  N    6.887602   0.252383  -0.027826  -0.032317  -0.027822   0.321498
     2  C    0.252383   4.827718   0.412537   0.410010   0.412543  -0.037865
     3  H   -0.027826   0.412537   0.528685  -0.026606  -0.036947  -0.000307
     4  H   -0.032317   0.410010  -0.026606   0.522406  -0.026588   0.003208
     5  H   -0.027822   0.412543  -0.036947  -0.026588   0.528665  -0.000312
     6  H    0.321498  -0.037865  -0.000307   0.003208  -0.000312   0.478438
     7  H    0.364254  -0.015570   0.000682   0.000814   0.000683  -0.014899
              7
     1  N    0.364254
     2  C   -0.015570
     3  H    0.000682
     4  H    0.000814
     5  H    0.000683
     6  H   -0.014899
     7  H    0.363382
 Mulliken atomic charges:
              1
     1  N   -0.737772
     2  C   -0.261757
     3  H    0.149782
     4  H    0.149073
     5  H    0.149778
     6  H    0.250240
     7  H    0.300655
 Sum of Mulliken atomic charges =   0.00000
 Mulliken charges with hydrogens summed into heavy atoms:
              1
     1  N   -0.186877
     2  C    0.186877
 Sum of Mulliken charges with hydrogens summed into heavy atoms =   0.00000
 Electronic spatial extent (au):  <R**2>=            118.1901
 Charge=              0.0000 electrons
 Dipole moment (field-independent basis, Debye):
    X=              1.1741    Y=              0.2772    Z=             -0.0001  Tot=              1.2063
 Quadrupole moment (field-independent basis, Debye-Ang):
   XX=            -12.7864   YY=            -11.5580   ZZ=            -16.7494
   XY=              0.5464   XZ=              0.0000   YZ=              0.0000
 Traceless Quadrupole moment (field-independent basis, Debye-Ang):
   XX=              0.9115   YY=              2.1399   ZZ=             -3.0515
   XY=              0.5464   XZ=              0.0000   YZ=              0.0000
 Octapole moment (field-independent basis, Debye-Ang**2):
  XXX=             -1.3293  YYY=              0.8378  ZZZ=              0.0019  XYY=             -3.1499
  XXY=             -1.9300  XXZ=              0.0001  XZZ=              3.3350  YZZ=              0.4854
  YYZ=             -0.0024  XYZ=             -0.0002
 Hexadecapole moment (field-independent basis, Debye-Ang**3):
 XXXX=           -101.0910 YYYY=            -24.2436 ZZZZ=            -26.0086 XXXY=              5.9462
 XXXZ=              0.0006 YYYX=             -1.5450 YYYZ=              0.0003 ZZZX=              0.0031
 ZZZY=             -0.0005 XXYY=            -17.1218 XXZZ=            -23.6536 YYZZ=             -9.5785
 XXYZ=             -0.0002 YYXZ=             -0.0033 ZZXY=              1.4431
 N-N= 3.697210666782D+01 E-N=-2.958187180339D+02  KE= 9.436679368559D+01
 Calling FoFJK, ICntrl=      2127 FMM=F ISym2X=0 I1Cent= 0 IOpClX= 0 NMat=1 NMatS=1 NMatT=0.
 ***** Axes restored to original set *****
 -------------------------------------------------------------------
 Center     Atomic                   Forces (Hartrees/Bohr)
 Number     Number              X              Y              Z
 -------------------------------------------------------------------
      1        7           0.100948714    0.156632108    0.000000236
      2        6          -0.074796216   -0.032964228    0.000000152
      3        1          -0.013988871    0.001569709    0.002410558
      4        1          -0.003611906    0.000168042   -0.000000419
      5        1          -0.013986575    0.001578429   -0.002414971
      6        1           0.001780479   -0.136938355    0.000000633
      7        1           0.003654375    0.009954296    0.000003811
 -------------------------------------------------------------------
 Cartesian Forces:  Max     0.156632108 RMS     0.053760530

 GradGradGradGradGradGradGradGradGradGradGradGradGradGradGradGradGradGrad
 Berny optimization.
 Internal  Forces:  Max     0.134554149 RMS     0.039842971
 Search for a local minimum.
 Step number   1 out of a maximum of   31
 All quantities printed in internal units (Hartrees-Bohrs-Radians)
 Mixed Optimization -- RFO/linear search
 Second derivative matrix not updated -- first step.
     Eigenvalues ---    0.00230   0.00230   0.06871   0.07533   0.13501
     Eigenvalues ---    0.16000   0.16000   0.16000   0.16000   0.16000
     Eigenvalues ---    0.17243   0.35854   0.35994   0.35996   0.47688
     Eigenvalues --- 1000.000001000.000001000.000001000.000001000.00000
     Eigenvalues --- 1000.00000
 RFO step:  Lambda=-1.20189985D-01 EMin= 2.30000000D-03
 Linear search not attempted -- first point.
 Maximum step size (   0.300) exceeded in Quadratic search.
    -- Step size scaled by   0.455
 Iteration  1 RMS(Cart)=  0.06973174 RMS(Int)=  0.00293435
 Iteration  2 RMS(Cart)=  0.00351331 RMS(Int)=  0.00017259
 Iteration  3 RMS(Cart)=  0.00000989 RMS(Int)=  0.00017238
 Iteration  4 RMS(Cart)=  0.00000000 RMS(Int)=  0.00017238
 Variable       Old X    -DE/DX   Delta X   Delta X   Delta X     New X
                                 (Linear)    (Quad)   (Total)
    R1        3.42686  -0.10795   0.00000  -0.19226  -0.19226   3.23459
    R2        2.51045  -0.13455   0.00000  -0.20899  -0.20899   2.30146
    R3        1.88973  -0.01012   0.00000  -0.00770  -0.00770   1.88202
    R4        2.04091  -0.00196   0.00000  -0.00186  -0.00186   2.03905
    R5        2.04311  -0.00138   0.00000  -0.00131  -0.00131   2.04180
    R6        2.04087  -0.00195   0.00000  -0.00185  -0.00185   2.03903
    A1        1.71190   0.04069   0.00000   0.06600   0.06600   1.77790
    A2        2.28564  -0.01735   0.00000  -0.02814  -0.02814   2.25750
    A3        2.28564  -0.02334   0.00000  -0.03786  -0.03786   2.24778
    A4        1.93969  -0.01682   0.00000  -0.02804  -0.02832   1.91137
    A5        1.85671   0.00203   0.00000   0.00474   0.00474   1.86145
    A6        1.93953  -0.01682   0.00000  -0.02805  -0.02832   1.91120
    A7        1.90058   0.00890   0.00000   0.01588   0.01589   1.91647
    A8        1.92479   0.01435   0.00000   0.02074   0.02020   1.94499
    A9        1.90059   0.00890   0.00000   0.01588   0.01588   1.91647
    D1        1.07633  -0.00278   0.00000  -0.00670  -0.00648   1.06985
    D2       -3.14048   0.00000   0.00000  -0.00001  -0.00001  -3.14049
    D3       -1.07420   0.00278   0.00000   0.00668   0.00647  -1.06773
    D4       -2.06526  -0.00278   0.00000  -0.00669  -0.00647  -2.07173
    D5        0.00111   0.00000   0.00000   0.00001   0.00001   0.00112
    D6        2.06739   0.00278   0.00000   0.00670   0.00648   2.07387
         Item               Value     Threshold  Converged?
 Maximum Force            0.134554     0.000450     NO 
 RMS     Force            0.039843     0.000300     NO 
 Maximum Displacement     0.144822     0.001800     NO 
 RMS     Displacement     0.071345     0.001200     NO 
 Predicted change in Energy=-4.762024D-02
 GradGradGradGradGradGradGradGradGradGradGradGradGradGradGradGradGradGrad

                          Input orientation:                          
 ---------------------------------------------------------------------
 Center     Atomic      Atomic             Coordinates (Angstroms)
 Number     Number       Type             X           Y           Z
 ---------------------------------------------------------------------
      1          7           0       -0.590216   -0.043306    0.000003
      2          6           0        1.120319    0.019114    0.000000
      3          1           0        1.462694    0.520356    0.892088
      4          1           0        1.467501   -1.004060   -0.001163
      5          1           0        1.462445    0.522294   -0.891073
      6          1           0       -0.883943    1.138622    0.000028
      7          1           0       -1.193120   -0.836005    0.000000
 ---------------------------------------------------------------------
                    Distance matrix (angstroms):
                    1          2          3          4          5
     1  N    0.000000
     2  C    1.711674   0.000000
     3  H    2.308239   1.079020   0.000000
     4  H    2.270957   1.080473   1.766852   0.000000
     5  H    2.308103   1.079006   1.783163   1.766840   0.000000
     6  H    1.217879   2.295727   2.585484   3.181253   2.584465
     7  H    0.995924   2.466420   3.112697   2.665923   3.113040
                    6          7
     6  H    0.000000
     7  H    1.998685   0.000000
 Stoichiometry    CH5N
 Framework group  C1[X(CH5N)]
 Deg. of freedom    15
 Full point group                 C1      NOp   1
 Largest Abelian subgroup         C1      NOp   1
 Largest concise Abelian subgroup C1      NOp   1
                         Standard orientation:                         
 ---------------------------------------------------------------------
 Center     Atomic      Atomic             Coordinates (Angstroms)
 Number     Number       Type             X           Y           Z
 ---------------------------------------------------------------------
      1          7           0       -0.863716   -0.032393    0.000009
      2          6           0        0.847789   -0.008424    0.000006
      3          1           0        1.201340    0.484999    0.892093
      4          1           0        1.171893   -1.039140   -0.001158
      5          1           0        1.201136    0.486942   -0.891068
      6          1           0       -1.130812    1.155836    0.000033
      7          1           0       -1.484279   -0.811345    0.000005
 ---------------------------------------------------------------------
 Rotational constants (GHZ):     97.4011699     17.7657402     16.6074206
 Standard basis: 6-311+G(2df,p) (5D, 7F)
 There are    98 symmetry adapted basis functions of A   symmetry.
 Integral buffers will be    131072 words long.
 Raffenetti 1 integral format.
 Two-electron integral symmetry is turned on.
    98 basis functions,   144 primitive gaussians,   108 cartesian basis functions
     9 alpha electrons        9 beta electrons
       nuclear repulsion energy        38.3552400197 Hartrees.
 NAtoms=    7 NActive=    7 NUniq=    7 SFac= 7.50D-01 NAtFMM=   80 NAOKFM=F Big=F
 One-electron integrals computed using PRISM.
 NBasis=    98 RedAO= T  NBF=    98
 NBsUse=    98 1.00D-06 NBFU=    98
 Initial guess read from the read-write file.
 B after Tr=     0.000000    0.000000    0.000000
         Rot=    1.000000    0.000000    0.000000    0.000000 Ang=   0.00 deg.
 Initial guess orbital symmetries:
       Occupied  (A) (A) (A) (A) (A) (A) (A) (A) (A)
       Virtual   (A) (A) (A) (A) (A) (A) (A) (A) (A) (A) (A) (A)
                 (A) (A) (A) (A) (A) (A) (A) (A) (A) (A) (A) (A)
                 (A) (A) (A) (A) (A) (A) (A) (A) (A) (A) (A) (A)
                 (A) (A) (A) (A) (A) (A) (A) (A) (A) (A) (A) (A)
                 (A) (A) (A) (A) (A) (A) (A) (A) (A) (A) (A) (A)
                 (A) (A) (A) (A) (A) (A) (A) (A) (A) (A) (A) (A)
                 (A) (A) (A) (A) (A) (A) (A) (A) (A) (A) (A) (A)
                 (A) (A) (A) (A) (A)
 Harris functional with IExCor=  205 diagonalized for initial guess.
 ExpMin= 4.38D-02 ExpMax= 6.29D+03 ExpMxC= 9.49D+02 IAcc=2 IRadAn=         0 AccDes= 0.00D+00
 HarFok:  IExCor=  205 AccDes= 0.00D+00 IRadAn=         0 IDoV= 1
 ScaDFX=  1.000000  1.000000  1.000000  1.000000
 FoFCou: FMM=F IPFlag=           0 FMFlag=      100000 FMFlg1=           0
         NFxFlg=           0 DoJE=T BraDBF=F KetDBF=T FulRan=T
         Omega=  0.000000  0.000000  1.000000  0.000000  0.000000 ICntrl=     500 IOpCl=  0
         NMat0=    1 NMatS0=    1 NMatT0=    0 NMatD0=    1 NMtDS0=    0 NMtDT0=    0
         I1Cent=           4 NGrid=           0.
 Petite list used in FoFCou.
 Requested convergence on RMS density matrix=1.00D-08 within 128 cycles.
 Requested convergence on MAX density matrix=1.00D-06.
 Requested convergence on             energy=1.00D-06.
 No special actions if energy rises.
 Keep R1 ints in memory in canonical form, NReq=19320253.
 SCF Done:  E(RHF) =  -95.1671183130     A.U. after   10 cycles
             Convg  =    0.4424D-08             -V/T =  2.0066
 Calling FoFJK, ICntrl=      2127 FMM=F ISym2X=0 I1Cent= 0 IOpClX= 0 NMat=1 NMatS=1 NMatT=0.
 ***** Axes restored to original set *****
 -------------------------------------------------------------------
 Center     Atomic                   Forces (Hartrees/Bohr)
 Number     Number              X              Y              Z
 -------------------------------------------------------------------
      1        7           0.086737277    0.140051965   -0.000002197
      2        6          -0.083129479   -0.026812585    0.000001275
      3        1          -0.006579736    0.001042779    0.000788216
      4        1           0.000027437    0.000647577   -0.000000557
      5        1          -0.006577379    0.001045506   -0.000791588
      6        1           0.005820512   -0.124123846    0.000000763
      7        1           0.003701368    0.008148603    0.000004087
 -------------------------------------------------------------------
 Cartesian Forces:  Max     0.140051965 RMS     0.048979317

 GradGradGradGradGradGradGradGradGradGradGradGradGradGradGradGradGradGrad
 Berny optimization.
 Using GEDIIS/GDIIS optimizer.
 Internal  Forces:  Max     0.121863577 RMS     0.035553195
 Search for a local minimum.
 Step number   2 out of a maximum of   31
 All quantities printed in internal units (Hartrees-Bohrs-Radians)
 Mixed Optimization -- RFO/linear search
 Update second derivatives using D2CorX and points    1    2
 DE= -5.21D-02 DEPred=-4.76D-02 R= 1.09D+00
 SS=  1.41D+00  RLast= 3.00D-01 DXNew= 5.0454D-01 8.9999D-01
 Trust test= 1.09D+00 RLast= 3.00D-01 DXMaxT set to 5.05D-01
 Use linear search instead of GDIIS.
 Linear search step of   0.600 exceeds DXMaxT=   0.505 but not scaled.
 Quartic linear search produced a step of  2.00000.
 Iteration  1 RMS(Cart)=  0.08237881 RMS(Int)=  0.06459745
 Iteration  2 RMS(Cart)=  0.07353957 RMS(Int)=  0.00646182
 Iteration  3 RMS(Cart)=  0.00566275 RMS(Int)=  0.00110025
 Iteration  4 RMS(Cart)=  0.00000147 RMS(Int)=  0.00110025
 Iteration  5 RMS(Cart)=  0.00000000 RMS(Int)=  0.00110025
 Variable       Old X    -DE/DX   Delta X   Delta X   Delta X     New X
                                 (Linear)    (Quad)   (Total)
    R1        3.23459  -0.09707  -0.38452   0.00000  -0.38452   2.85007
    R2        2.30146  -0.12186  -0.41798   0.00000  -0.41798   1.88347
    R3        1.88202  -0.00873  -0.01540   0.00000  -0.01540   1.86662
    R4        2.03905  -0.00095  -0.00372   0.00000  -0.00372   2.03534
    R5        2.04180  -0.00060  -0.00262   0.00000  -0.00262   2.03918
    R6        2.03903  -0.00094  -0.00369   0.00000  -0.00369   2.03533
    A1        1.77790   0.03602   0.13200   0.00000   0.13200   1.90990
    A2        2.25750  -0.01614  -0.05628   0.00000  -0.05628   2.20123
    A3        2.24778  -0.01988  -0.07572   0.00000  -0.07572   2.17206
    A4        1.91137  -0.00865  -0.05663   0.00000  -0.05823   1.85314
    A5        1.86145   0.00384   0.00948   0.00000   0.00936   1.87081
    A6        1.91120  -0.00865  -0.05664   0.00000  -0.05824   1.85296
    A7        1.91647   0.00352   0.03178   0.00000   0.03164   1.94811
    A8        1.94499   0.00620   0.04041   0.00000   0.03694   1.98193
    A9        1.91647   0.00352   0.03177   0.00000   0.03163   1.94810
    D1        1.06985  -0.00173  -0.01297   0.00000  -0.01153   1.05832
    D2       -3.14049   0.00000  -0.00001   0.00000  -0.00001  -3.14050
    D3       -1.06773   0.00173   0.01293   0.00000   0.01150  -1.05624
    D4       -2.07173  -0.00173  -0.01294   0.00000  -0.01150  -2.08323
    D5        0.00112   0.00000   0.00002   0.00000   0.00002   0.00113
    D6        2.07387   0.00173   0.01296   0.00000   0.01153   2.08540
         Item               Value     Threshold  Converged?
 Maximum Force            0.121864     0.000450     NO 
 RMS     Force            0.035553     0.000300     NO 
 Maximum Displacement     0.299047     0.001800     NO 
 RMS     Displacement     0.147221     0.001200     NO 
 Predicted change in Energy=-8.506727D-02
 GradGradGradGradGradGradGradGradGradGradGradGradGradGradGradGradGradGrad

                          Input orientation:                          
 ---------------------------------------------------------------------
 Center     Atomic      Atomic             Coordinates (Angstroms)
 Number     Number       Type             X           Y           Z
 ---------------------------------------------------------------------
      1          7           0       -0.456170    0.036774    0.000001
      2          6           0        1.051928    0.019822   -0.000011
      3          1           0        1.357694    0.523598    0.901522
      4          1           0        1.359222   -1.014584   -0.001172
      5          1           0        1.357518    0.525560   -0.900503
      6          1           0       -0.777126    0.980373    0.000035
      7          1           0       -1.047386   -0.754527    0.000014
 ---------------------------------------------------------------------
                    Distance matrix (angstroms):
                    1          2          3          4          5
     1  N    0.000000
     2  C    1.508193   0.000000
     3  H    2.083229   1.077054   0.000000
     4  H    2.097857   1.079086   1.783498   0.000000
     5  H    2.083095   1.077052   1.802026   1.783492   0.000000
     6  H    0.996691   2.065938   2.361944   2.922985   2.361045
     7  H    0.987772   2.237574   2.868925   2.420619   2.869341
                    6          7
     6  H    0.000000
     7  H    1.755824   0.000000
 Stoichiometry    CH5N
 Framework group  C1[X(CH5N)]
 Deg. of freedom    15
 Full point group                 C1      NOp   1
 Largest Abelian subgroup         C1      NOp   1
 Largest concise Abelian subgroup C1      NOp   1
                         Standard orientation:                         
 ---------------------------------------------------------------------
 Center     Atomic      Atomic             Coordinates (Angstroms)
 Number     Number       Type             X           Y           Z
 ---------------------------------------------------------------------
      1          7           0        0.754384    0.006303    0.000010
      2          6           0       -0.753809    0.007860   -0.000002
      3          1           0       -1.054416   -0.499011    0.901531
      4          1           0       -1.071645    1.039076   -0.001163
      5          1           0       -1.054221   -0.500971   -0.900494
      6          1           0        1.084955   -0.933971    0.000044
      7          1           0        1.337492    0.803597    0.000023
 ---------------------------------------------------------------------
 Rotational constants (GHZ):    106.1863790     22.1725076     20.8148795
 Standard basis: 6-311+G(2df,p) (5D, 7F)
 There are    98 symmetry adapted basis functions of A   symmetry.
 Integral buffers will be    131072 words long.
 Raffenetti 1 integral format.
 Two-electron integral symmetry is turned on.
    98 basis functions,   144 primitive gaussians,   108 cartesian basis functions
     9 alpha electrons        9 beta electrons
       nuclear repulsion energy        41.7243839781 Hartrees.
 NAtoms=    7 NActive=    7 NUniq=    7 SFac= 7.50D-01 NAtFMM=   80 NAOKFM=F Big=F
 One-electron integrals computed using PRISM.
 NBasis=    98 RedAO= T  NBF=    98
 NBsUse=    98 1.00D-06 NBFU=    98
 Initial guess read from the read-write file.
 B after Tr=     0.000000    0.000000    0.000000
         Rot=    1.000000    0.000000    0.000000    0.000000 Ang=   0.00 deg.
 Initial guess orbital symmetries:
       Occupied  (A) (A) (A) (A) (A) (A) (A) (A) (A)
       Virtual   (A) (A) (A) (A) (A) (A) (A) (A) (A) (A) (A) (A)
                 (A) (A) (A) (A) (A) (A) (A) (A) (A) (A) (A) (A)
                 (A) (A) (A) (A) (A) (A) (A) (A) (A) (A) (A) (A)
                 (A) (A) (A) (A) (A) (A) (A) (A) (A) (A) (A) (A)
                 (A) (A) (A) (A) (A) (A) (A) (A) (A) (A) (A) (A)
                 (A) (A) (A) (A) (A) (A) (A) (A) (A) (A) (A) (A)
                 (A) (A) (A) (A) (A) (A) (A) (A) (A) (A) (A) (A)
                 (A) (A) (A) (A) (A)
 Harris functional with IExCor=  205 diagonalized for initial guess.
 ExpMin= 4.38D-02 ExpMax= 6.29D+03 ExpMxC= 9.49D+02 IAcc=2 IRadAn=         0 AccDes= 0.00D+00
 HarFok:  IExCor=  205 AccDes= 0.00D+00 IRadAn=         0 IDoV= 1
 ScaDFX=  1.000000  1.000000  1.000000  1.000000
 FoFCou: FMM=F IPFlag=           0 FMFlag=      100000 FMFlg1=           0
         NFxFlg=           0 DoJE=T BraDBF=F KetDBF=T FulRan=T
         Omega=  0.000000  0.000000  1.000000  0.000000  0.000000 ICntrl=     500 IOpCl=  0
         NMat0=    1 NMatS0=    1 NMatT0=    0 NMatD0=    1 NMtDS0=    0 NMtDT0=    0
         I1Cent=           4 NGrid=           0.
 Petite list used in FoFCou.
 Requested convergence on RMS density matrix=1.00D-08 within 128 cycles.
 Requested convergence on MAX density matrix=1.00D-06.
 Requested convergence on             energy=1.00D-06.
 No special actions if energy rises.
 Keep R1 ints in memory in canonical form, NReq=19320253.
 SCF Done:  E(RHF) =  -95.2328367154     A.U. after   12 cycles
             Convg  =    0.3122D-08             -V/T =  2.0010
 Calling FoFJK, ICntrl=      2127 FMM=F ISym2X=0 I1Cent= 0 IOpClX= 0 NMat=1 NMatS=1 NMatT=0.
 ***** Axes restored to original set *****
 -------------------------------------------------------------------
 Center     Atomic                   Forces (Hartrees/Bohr)
 Number     Number              X              Y              Z
 -------------------------------------------------------------------
      1        7           0.044694909    0.021802196   -0.000014100
      2        6          -0.061893982   -0.012562697    0.000003760
      3        1           0.012523405    0.000408068   -0.000650994
      4        1           0.008089080    0.001301747   -0.000000703
      5        1           0.012523364    0.000404105    0.000652954
      6        1          -0.017163786   -0.014825900    0.000003705
      7        1           0.001227009    0.003472481    0.000005378
 -------------------------------------------------------------------
 Cartesian Forces:  Max     0.061893982 RMS     0.018735759

 GradGradGradGradGradGradGradGradGradGradGradGradGradGradGradGradGradGrad
 Berny optimization.
 Using GEDIIS/GDIIS optimizer.
 Internal  Forces:  Max     0.028638872 RMS     0.011480345
 Search for a local minimum.
 Step number   3 out of a maximum of   31
 All quantities printed in internal units (Hartrees-Bohrs-Radians)
 Mixed Optimization -- RFO/linear search
 Update second derivatives using D2CorX and points    2    3
 Use linear search instead of GDIIS.
     Eigenvalues ---    0.00230   0.00230   0.07806   0.07840   0.12784
     Eigenvalues ---    0.15091   0.16000   0.16000   0.16000   0.16175
     Eigenvalues ---    0.27240   0.35856   0.35995   0.36090   0.47632
     Eigenvalues --- 1000.000001000.000001000.000001000.000001000.00000
     Eigenvalues --- 1000.00000
 RFO step:  Lambda=-1.36252862D-02 EMin= 2.30000000D-03
 Quartic linear search produced a step of  0.11607.
 Iteration  1 RMS(Cart)=  0.06680663 RMS(Int)=  0.00576613
 Iteration  2 RMS(Cart)=  0.00510894 RMS(Int)=  0.00202139
 Iteration  3 RMS(Cart)=  0.00001248 RMS(Int)=  0.00202134
 Iteration  4 RMS(Cart)=  0.00000004 RMS(Int)=  0.00202134
 Variable       Old X    -DE/DX   Delta X   Delta X   Delta X     New X
                                 (Linear)    (Quad)   (Total)
    R1        2.85007  -0.02864  -0.04463  -0.12541  -0.17004   2.68003
    R2        1.88347  -0.00851  -0.04852   0.02630  -0.02222   1.86126
    R3        1.86662  -0.00352  -0.00179  -0.00696  -0.00875   1.85787
    R4        2.03534   0.00320  -0.00043   0.00960   0.00917   2.04451
    R5        2.03918   0.00106  -0.00030   0.00320   0.00289   2.04207
    R6        2.03533   0.00320  -0.00043   0.00959   0.00916   2.04449
    A1        1.90990   0.02572   0.01532   0.13863   0.15395   2.06385
    A2        2.20123  -0.01184  -0.00653  -0.06418  -0.07071   2.13051
    A3        2.17206  -0.01388  -0.00879  -0.07445  -0.08324   2.08882
    A4        1.85314   0.01460  -0.00676   0.10139   0.09049   1.94363
    A5        1.87081   0.00775   0.00109   0.04444   0.04305   1.91386
    A6        1.85296   0.01460  -0.00676   0.10140   0.09049   1.94346
    A7        1.94811  -0.01011   0.00367  -0.07023  -0.06895   1.87917
    A8        1.98193  -0.01249   0.00429  -0.07849  -0.07957   1.90235
    A9        1.94810  -0.01011   0.00367  -0.07025  -0.06896   1.87914
    D1        1.05832   0.00025  -0.00134   0.00644   0.00623   1.06455
    D2       -3.14050   0.00000   0.00000  -0.00011  -0.00011  -3.14061
    D3       -1.05624  -0.00026   0.00133  -0.00668  -0.00648  -1.06272
    D4       -2.08323   0.00026  -0.00134   0.00670   0.00650  -2.07674
    D5        0.00113   0.00000   0.00000   0.00016   0.00016   0.00129
    D6        2.08540  -0.00025   0.00134  -0.00642  -0.00621   2.07919
         Item               Value     Threshold  Converged?
 Maximum Force            0.028639     0.000450     NO 
 RMS     Force            0.011480     0.000300     NO 
 Maximum Displacement     0.162846     0.001800     NO 
 RMS     Displacement     0.067177     0.001200     NO 
 Predicted change in Energy=-9.788725D-03
 GradGradGradGradGradGradGradGradGradGradGradGradGradGradGradGradGradGrad

                          Input orientation:                          
 ---------------------------------------------------------------------
 Center     Atomic      Atomic             Coordinates (Angstroms)
 Number     Number       Type             X           Y           Z
 ---------------------------------------------------------------------
      1          7           0       -0.426714    0.074099   -0.000061
      2          6           0        0.990689    0.026148   -0.000010
      3          1           0        1.401035    0.500986    0.881277
      4          1           0        1.319561   -1.003209   -0.001155
      5          1           0        1.400987    0.502901   -0.880274
      6          1           0       -0.863301    0.956985    0.000056
      7          1           0       -0.976578   -0.740895    0.000051
 ---------------------------------------------------------------------
                    Distance matrix (angstroms):
                    1          2          3          4          5
     1  N    0.000000
     2  C    1.418213   0.000000
     3  H    2.073560   1.081906   0.000000
     4  H    2.051845   1.080618   1.745831   0.000000
     5  H    2.073436   1.081898   1.761552   1.745809   0.000000
     6  H    0.984935   2.074545   2.472185   2.933812   2.471472
     7  H    0.983140   2.111514   2.823449   2.311075   2.823972
                    6          7
     6  H    0.000000
     7  H    1.701654   0.000000
 Stoichiometry    CH5N
 Framework group  C1[X(CH5N)]
 Deg. of freedom    15
 Full point group                 C1      NOp   1
 Largest Abelian subgroup         C1      NOp   1
 Largest concise Abelian subgroup C1      NOp   1
                         Standard orientation:                         
 ---------------------------------------------------------------------
 Center     Atomic      Atomic             Coordinates (Angstroms)
 Number     Number       Type             X           Y           Z
 ---------------------------------------------------------------------
      1          7           0        0.718179    0.000174   -0.000031
      2          6           0       -0.700034   -0.000648    0.000020
      3          1           0       -1.093807   -0.489317    0.881306
      4          1           0       -1.064111    1.016791   -0.001125
      5          1           0       -1.093694   -0.491229   -0.880245
      6          1           0        1.184871   -0.867176    0.000086
      7          1           0        1.239691    0.833596    0.000080
 ---------------------------------------------------------------------
 Rotational constants (GHZ):    111.1131688     23.8823223     22.3795323
 Standard basis: 6-311+G(2df,p) (5D, 7F)
 There are    98 symmetry adapted basis functions of A   symmetry.
 Integral buffers will be    131072 words long.
 Raffenetti 1 integral format.
 Two-electron integral symmetry is turned on.
    98 basis functions,   144 primitive gaussians,   108 cartesian basis functions
     9 alpha electrons        9 beta electrons
       nuclear repulsion energy        42.8500666589 Hartrees.
 NAtoms=    7 NActive=    7 NUniq=    7 SFac= 7.50D-01 NAtFMM=   80 NAOKFM=F Big=F
 One-electron integrals computed using PRISM.
 NBasis=    98 RedAO= T  NBF=    98
 NBsUse=    98 1.00D-06 NBFU=    98
 Initial guess read from the read-write file.
 B after Tr=     0.000000    0.000000    0.000000
         Rot=    1.000000    0.000000    0.000000    0.000000 Ang=   0.00 deg.
 Initial guess orbital symmetries:
       Occupied  (A) (A) (A) (A) (A) (A) (A) (A) (A)
       Virtual   (A) (A) (A) (A) (A) (A) (A) (A) (A) (A) (A) (A)
                 (A) (A) (A) (A) (A) (A) (A) (A) (A) (A) (A) (A)
                 (A) (A) (A) (A) (A) (A) (A) (A) (A) (A) (A) (A)
                 (A) (A) (A) (A) (A) (A) (A) (A) (A) (A) (A) (A)
                 (A) (A) (A) (A) (A) (A) (A) (A) (A) (A) (A) (A)
                 (A) (A) (A) (A) (A) (A) (A) (A) (A) (A) (A) (A)
                 (A) (A) (A) (A) (A) (A) (A) (A) (A) (A) (A) (A)
                 (A) (A) (A) (A) (A)
 Harris functional with IExCor=  205 diagonalized for initial guess.
 ExpMin= 4.38D-02 ExpMax= 6.29D+03 ExpMxC= 9.49D+02 IAcc=2 IRadAn=         0 AccDes= 0.00D+00
 HarFok:  IExCor=  205 AccDes= 0.00D+00 IRadAn=         0 IDoV= 1
 ScaDFX=  1.000000  1.000000  1.000000  1.000000
 FoFCou: FMM=F IPFlag=           0 FMFlag=      100000 FMFlg1=           0
         NFxFlg=           0 DoJE=T BraDBF=F KetDBF=T FulRan=T
         Omega=  0.000000  0.000000  1.000000  0.000000  0.000000 ICntrl=     500 IOpCl=  0
         NMat0=    1 NMatS0=    1 NMatT0=    0 NMatD0=    1 NMtDS0=    0 NMtDT0=    0
         I1Cent=           4 NGrid=           0.
 Petite list used in FoFCou.
 Requested convergence on RMS density matrix=1.00D-08 within 128 cycles.
 Requested convergence on MAX density matrix=1.00D-06.
 Requested convergence on             energy=1.00D-06.
 No special actions if energy rises.
 Keep R1 ints in memory in canonical form, NReq=19320253.
 SCF Done:  E(RHF) =  -95.2416884504     A.U. after   10 cycles
             Convg  =    0.5079D-08             -V/T =  1.9993
 Calling FoFJK, ICntrl=      2127 FMM=F ISym2X=0 I1Cent= 0 IOpClX= 0 NMat=1 NMatS=1 NMatT=0.
 ***** Axes restored to original set *****
 -------------------------------------------------------------------
 Center     Atomic                   Forces (Hartrees/Bohr)
 Number     Number              X              Y              Z
 -------------------------------------------------------------------
      1        7          -0.004856264    0.003014898   -0.000025115
      2        6           0.003137027   -0.003172890    0.000003572
      3        1           0.005186957    0.001576905    0.002114471
      4        1           0.001407396   -0.001663113   -0.000002630
      5        1           0.005184324    0.001580237   -0.002107106
      6        1          -0.006998898   -0.000156782    0.000007230
      7        1          -0.003060542   -0.001179255    0.000009578
 -------------------------------------------------------------------
 Cartesian Forces:  Max     0.006998898 RMS     0.002966252

 GradGradGradGradGradGradGradGradGradGradGradGradGradGradGradGradGradGrad
 Berny optimization.
 Using GEDIIS/GDIIS optimizer.
 Internal  Forces:  Max     0.014963940 RMS     0.004481003
 Search for a local minimum.
 Step number   4 out of a maximum of   31
 All quantities printed in internal units (Hartrees-Bohrs-Radians)
 Mixed Optimization -- RFO/linear search
 Update second derivatives using D2CorX and points    3    4
 DE= -8.85D-03 DEPred=-9.79D-03 R= 9.04D-01
 SS=  1.41D+00  RLast= 3.15D-01 DXNew= 8.4853D-01 9.4641D-01
 Trust test= 9.04D-01 RLast= 3.15D-01 DXMaxT set to 8.49D-01
 Use linear search instead of GDIIS.
     Eigenvalues ---    0.00230   0.00230   0.06814   0.07114   0.11123
     Eigenvalues ---    0.15914   0.15988   0.16000   0.16002   0.18695
     Eigenvalues ---    0.30477   0.35865   0.35995   0.36393   0.47857
     Eigenvalues --- 1000.000001000.000001000.000001000.000001000.00000
     Eigenvalues --- 1000.00000
 RFO step:  Lambda=-2.33116173D-03 EMin= 2.29999999D-03
 Quartic linear search produced a step of  0.02312.
 Iteration  1 RMS(Cart)=  0.04565215 RMS(Int)=  0.00091570
 Iteration  2 RMS(Cart)=  0.00072244 RMS(Int)=  0.00025227
 Iteration  3 RMS(Cart)=  0.00000020 RMS(Int)=  0.00025227
 Variable       Old X    -DE/DX   Delta X   Delta X   Delta X     New X
                                 (Linear)    (Quad)   (Total)
    R1        2.68003   0.01496  -0.00393   0.07087   0.06694   2.74698
    R2        1.86126   0.00296  -0.00051  -0.01123  -0.01175   1.84951
    R3        1.85787   0.00269  -0.00020   0.00452   0.00432   1.86218
    R4        2.04451   0.00438   0.00021   0.01308   0.01329   2.05780
    R5        2.04207   0.00201   0.00007   0.00595   0.00601   2.04808
    R6        2.04449   0.00438   0.00021   0.01307   0.01328   2.05777
    A1        2.06385   0.00671   0.00356   0.06164   0.06520   2.12905
    A2        2.13051  -0.00161  -0.00164  -0.01915  -0.02078   2.10973
    A3        2.08882  -0.00510  -0.00192  -0.04249  -0.04442   2.04440
    A4        1.94363   0.00434   0.00209   0.03351   0.03512   1.97874
    A5        1.91386  -0.00054   0.00100  -0.00025   0.00065   1.91451
    A6        1.94346   0.00433   0.00209   0.03350   0.03511   1.97856
    A7        1.87917  -0.00216  -0.00159  -0.01997  -0.02166   1.85751
    A8        1.90235  -0.00427  -0.00184  -0.03048  -0.03309   1.86927
    A9        1.87914  -0.00216  -0.00159  -0.01998  -0.02166   1.85748
    D1        1.06455   0.00031   0.00014   0.00321   0.00361   1.06815
    D2       -3.14061   0.00000   0.00000  -0.00079  -0.00079  -3.14140
    D3       -1.06272  -0.00032  -0.00015  -0.00481  -0.00521  -1.06793
    D4       -2.07674   0.00032   0.00015   0.00498   0.00538  -2.07136
    D5        0.00129   0.00000   0.00000   0.00097   0.00098   0.00227
    D6        2.07919  -0.00031  -0.00014  -0.00305  -0.00344   2.07575
         Item               Value     Threshold  Converged?
 Maximum Force            0.014964     0.000450     NO 
 RMS     Force            0.004481     0.000300     NO 
 Maximum Displacement     0.138262     0.001800     NO 
 RMS     Displacement     0.045469     0.001200     NO 
 Predicted change in Energy=-1.197849D-03
 GradGradGradGradGradGradGradGradGradGradGradGradGradGradGradGradGradGrad

                          Input orientation:                          
 ---------------------------------------------------------------------
 Center     Atomic      Atomic             Coordinates (Angstroms)
 Number     Number       Type             X           Y           Z
 ---------------------------------------------------------------------
      1          7           0       -0.452257    0.090675   -0.000459
      2          6           0        1.000175    0.031496   -0.000084
      3          1           0        1.451171    0.494201    0.876443
      4          1           0        1.323552   -1.002935   -0.001185
      5          1           0        1.451513    0.496134   -0.875392
      6          1           0       -0.936466    0.941223    0.000221
      7          1           0       -0.992008   -0.733781    0.000341
 ---------------------------------------------------------------------
                    Distance matrix (angstroms):
                    1          2          3          4          5
     1  N    0.000000
     2  C    1.453637   0.000000
     3  H    2.134204   1.088941   0.000000
     4  H    2.085540   1.083799   1.740096   0.000000
     5  H    2.134067   1.088925   1.751836   1.740063   0.000000
     6  H    0.978719   2.139669   2.582325   2.981180   2.582101
     7  H    0.985424   2.134114   2.871344   2.331150   2.872350
                    6          7
     6  H    0.000000
     7  H    1.675925   0.000000
 Stoichiometry    CH5N
 Framework group  C1[X(CH5N)]
 Deg. of freedom    15
 Full point group                 C1      NOp   1
 Largest Abelian subgroup         C1      NOp   1
 Largest concise Abelian subgroup C1      NOp   1
                         Standard orientation:                         
 ---------------------------------------------------------------------
 Center     Atomic      Atomic             Coordinates (Angstroms)
 Number     Number       Type             X           Y           Z
 ---------------------------------------------------------------------
      1          7           0        0.738196   -0.004814   -0.000276
      2          6           0       -0.715440   -0.003290    0.000098
      3          1           0       -1.147729   -0.483519    0.876626
      4          1           0       -1.079591    1.017501   -0.001002
      5          1           0       -1.147994   -0.485464   -0.875209
      6          1           0        1.255760   -0.835487    0.000404
      7          1           0        1.244821    0.840403    0.000524
 ---------------------------------------------------------------------
 Rotational constants (GHZ):    112.8409517     22.6866598     21.3580541
 Standard basis: 6-311+G(2df,p) (5D, 7F)
 There are    98 symmetry adapted basis functions of A   symmetry.
 Integral buffers will be    131072 words long.
 Raffenetti 1 integral format.
 Two-electron integral symmetry is turned on.
    98 basis functions,   144 primitive gaussians,   108 cartesian basis functions
     9 alpha electrons        9 beta electrons
       nuclear repulsion energy        42.2226278478 Hartrees.
 NAtoms=    7 NActive=    7 NUniq=    7 SFac= 7.50D-01 NAtFMM=   80 NAOKFM=F Big=F
 One-electron integrals computed using PRISM.
 NBasis=    98 RedAO= T  NBF=    98
 NBsUse=    98 1.00D-06 NBFU=    98
 Initial guess read from the read-write file.
 B after Tr=     0.000000    0.000000    0.000000
         Rot=    1.000000    0.000000    0.000000    0.000000 Ang=   0.00 deg.
 Initial guess orbital symmetries:
       Occupied  (A) (A) (A) (A) (A) (A) (A) (A) (A)
       Virtual   (A) (A) (A) (A) (A) (A) (A) (A) (A) (A) (A) (A)
                 (A) (A) (A) (A) (A) (A) (A) (A) (A) (A) (A) (A)
                 (A) (A) (A) (A) (A) (A) (A) (A) (A) (A) (A) (A)
                 (A) (A) (A) (A) (A) (A) (A) (A) (A) (A) (A) (A)
                 (A) (A) (A) (A) (A) (A) (A) (A) (A) (A) (A) (A)
                 (A) (A) (A) (A) (A) (A) (A) (A) (A) (A) (A) (A)
                 (A) (A) (A) (A) (A) (A) (A) (A) (A) (A) (A) (A)
                 (A) (A) (A) (A) (A)
 Harris functional with IExCor=  205 diagonalized for initial guess.
 ExpMin= 4.38D-02 ExpMax= 6.29D+03 ExpMxC= 9.49D+02 IAcc=2 IRadAn=         0 AccDes= 0.00D+00
 HarFok:  IExCor=  205 AccDes= 0.00D+00 IRadAn=         0 IDoV= 1
 ScaDFX=  1.000000  1.000000  1.000000  1.000000
 FoFCou: FMM=F IPFlag=           0 FMFlag=      100000 FMFlg1=           0
         NFxFlg=           0 DoJE=T BraDBF=F KetDBF=T FulRan=T
         Omega=  0.000000  0.000000  1.000000  0.000000  0.000000 ICntrl=     500 IOpCl=  0
         NMat0=    1 NMatS0=    1 NMatT0=    0 NMatD0=    1 NMtDS0=    0 NMtDT0=    0
         I1Cent=           4 NGrid=           0.
 Petite list used in FoFCou.
 Requested convergence on RMS density matrix=1.00D-08 within 128 cycles.
 Requested convergence on MAX density matrix=1.00D-06.
 Requested convergence on             energy=1.00D-06.
 No special actions if energy rises.
 Keep R1 ints in memory in canonical form, NReq=19320253.
 SCF Done:  E(RHF) =  -95.2417649959     A.U. after    9 cycles
             Convg  =    0.5554D-08             -V/T =  2.0005
 Calling FoFJK, ICntrl=      2127 FMM=F ISym2X=0 I1Cent= 0 IOpClX= 0 NMat=1 NMatS=1 NMatT=0.
 ***** Axes restored to original set *****
 -------------------------------------------------------------------
 Center     Atomic                   Forces (Hartrees/Bohr)
 Number     Number              X              Y              Z
 -------------------------------------------------------------------
      1        7           0.020321699   -0.008877842   -0.000089412
      2        6          -0.008131628    0.000708138    0.000027860
      3        1          -0.003494055    0.000475357    0.000284750
      4        1          -0.003017900   -0.000462726   -0.000003445
      5        1          -0.003509383    0.000478122   -0.000283405
      6        1          -0.002585781    0.009515157    0.000032529
      7        1           0.000417048   -0.001836206    0.000031123
 -------------------------------------------------------------------
 Cartesian Forces:  Max     0.020321699 RMS     0.005747278

 GradGradGradGradGradGradGradGradGradGradGradGradGradGradGradGradGradGrad
 Berny optimization.
 Using GEDIIS/GDIIS optimizer.
 Internal  Forces:  Max     0.018186717 RMS     0.004870878
 Search for a local minimum.
 Step number   5 out of a maximum of   31
 All quantities printed in internal units (Hartrees-Bohrs-Radians)
 Mixed Optimization -- RFO/linear search
 Update second derivatives using D2CorX and points    3    4    5
 DE= -7.65D-05 DEPred=-1.20D-03 R= 6.39D-02
 Trust test= 6.39D-02 RLast= 1.28D-01 DXMaxT set to 4.24D-01
 Use linear search instead of GDIIS.
     Eigenvalues ---    0.00230   0.00230   0.06396   0.06947   0.08833
     Eigenvalues ---    0.15934   0.15997   0.16000   0.16624   0.27952
     Eigenvalues ---    0.33944   0.35867   0.35995   0.41316   0.47809
     Eigenvalues --- 1000.000001000.000001000.000001000.000001000.00000
     Eigenvalues --- 1000.00000
 RFO step:  Lambda=-3.55872184D-04 EMin= 2.29999480D-03
 Quartic linear search produced a step of -0.48872.
 Iteration  1 RMS(Cart)=  0.01768552 RMS(Int)=  0.00010109
 Iteration  2 RMS(Cart)=  0.00004251 RMS(Int)=  0.00009254
 Iteration  3 RMS(Cart)=  0.00000001 RMS(Int)=  0.00009254
 Variable       Old X    -DE/DX   Delta X   Delta X   Delta X     New X
                                 (Linear)    (Quad)   (Total)
    R1        2.74698  -0.01819  -0.03271  -0.01480  -0.04752   2.69946
    R2        1.84951   0.00955   0.00574   0.02919   0.03493   1.88444
    R3        1.86218   0.00131  -0.00211   0.00484   0.00273   1.86491
    R4        2.05780  -0.00102  -0.00650   0.00718   0.00068   2.05848
    R5        2.04808  -0.00046  -0.00294   0.00328   0.00035   2.04843
    R6        2.05777  -0.00102  -0.00649   0.00716   0.00067   2.05844
    A1        2.12905  -0.00219  -0.03186   0.02844  -0.00343   2.12563
    A2        2.10973  -0.00016   0.01016  -0.01088  -0.00073   2.10900
    A3        2.04440   0.00236   0.02171  -0.01757   0.00414   2.04854
    A4        1.97874  -0.00324  -0.01716   0.00915  -0.00786   1.97088
    A5        1.91451  -0.00265  -0.00032  -0.00991  -0.01024   1.90426
    A6        1.97856  -0.00327  -0.01716   0.00904  -0.00796   1.97060
    A7        1.85751   0.00324   0.01058  -0.00056   0.01001   1.86752
    A8        1.86927   0.00354   0.01617  -0.00814   0.00831   1.87758
    A9        1.85748   0.00325   0.01059  -0.00057   0.01000   1.86748
    D1        1.06815  -0.00020  -0.00176  -0.00050  -0.00237   1.06578
    D2       -3.14140  -0.00001   0.00039  -0.00214  -0.00175   3.14003
    D3       -1.06793   0.00017   0.00255  -0.00385  -0.00119  -1.06912
    D4       -2.07136  -0.00017  -0.00263   0.00427   0.00153  -2.06982
    D5        0.00227   0.00002  -0.00048   0.00263   0.00216   0.00443
    D6        2.07575   0.00020   0.00168   0.00092   0.00271   2.07846
         Item               Value     Threshold  Converged?
 Maximum Force            0.018187     0.000450     NO 
 RMS     Force            0.004871     0.000300     NO 
 Maximum Displacement     0.038040     0.001800     NO 
 RMS     Displacement     0.017714     0.001200     NO 
 Predicted change in Energy=-6.828589D-04
 GradGradGradGradGradGradGradGradGradGradGradGradGradGradGradGradGradGrad

                          Input orientation:                          
 ---------------------------------------------------------------------
 Center     Atomic      Atomic             Coordinates (Angstroms)
 Number     Number       Type             X           Y           Z
 ---------------------------------------------------------------------
      1          7           0       -0.433358    0.086078   -0.001350
      2          6           0        0.994047    0.030381   -0.000252
      3          1           0        1.436160    0.496440    0.879466
      4          1           0        1.308651   -1.006943   -0.001254
      5          1           0        1.437296    0.498436   -0.878309
      6          1           0       -0.925238    0.953527    0.000623
      7          1           0       -0.971878   -0.740903    0.000960
 ---------------------------------------------------------------------
                    Distance matrix (angstroms):
                    1          2          3          4          5
     1  N    0.000000
     2  C    1.428492   0.000000
     3  H    2.106972   1.089302   0.000000
     4  H    2.056524   1.083983   1.747022   0.000000
     5  H    2.106761   1.089279   1.757776   1.746981   0.000000
     6  H    0.997204   2.129754   2.560760   2.972155   2.561483
     7  H    0.986867   2.111810   2.846302   2.295995   2.848367
                    6          7
     6  H    0.000000
     7  H    1.695072   0.000000
 Stoichiometry    CH5N
 Framework group  C1[X(CH5N)]
 Deg. of freedom    15
 Full point group                 C1      NOp   1
 Largest Abelian subgroup         C1      NOp   1
 Largest concise Abelian subgroup C1      NOp   1
                         Standard orientation:                         
 ---------------------------------------------------------------------
 Center     Atomic      Atomic             Coordinates (Angstroms)
 Number     Number       Type             X           Y           Z
 ---------------------------------------------------------------------
      1          7           0        0.723797   -0.002463   -0.000648
      2          6           0       -0.704693   -0.003751    0.000105
      3          1           0       -1.128075   -0.486914    0.879809
      4          1           0       -1.060428    1.020197   -0.001172
      5          1           0       -1.128706   -0.489278   -0.877965
      6          1           0        1.249889   -0.849599    0.001608
      7          1           0        1.228898    0.845343    0.001627
 ---------------------------------------------------------------------
 Rotational constants (GHZ):    111.4641524     23.3691772     21.9292278
 Standard basis: 6-311+G(2df,p) (5D, 7F)
 There are    98 symmetry adapted basis functions of A   symmetry.
 Integral buffers will be    131072 words long.
 Raffenetti 1 integral format.
 Two-electron integral symmetry is turned on.
    98 basis functions,   144 primitive gaussians,   108 cartesian basis functions
     9 alpha electrons        9 beta electrons
       nuclear repulsion energy        42.5098750595 Hartrees.
 NAtoms=    7 NActive=    7 NUniq=    7 SFac= 7.50D-01 NAtFMM=   80 NAOKFM=F Big=F
 One-electron integrals computed using PRISM.
 NBasis=    98 RedAO= T  NBF=    98
 NBsUse=    98 1.00D-06 NBFU=    98
 Initial guess read from the read-write file.
 B after Tr=     0.000000    0.000000    0.000000
         Rot=    1.000000    0.000000    0.000000    0.000000 Ang=   0.00 deg.
 Initial guess orbital symmetries:
       Occupied  (A) (A) (A) (A) (A) (A) (A) (A) (A)
       Virtual   (A) (A) (A) (A) (A) (A) (A) (A) (A) (A) (A) (A)
                 (A) (A) (A) (A) (A) (A) (A) (A) (A) (A) (A) (A)
                 (A) (A) (A) (A) (A) (A) (A) (A) (A) (A) (A) (A)
                 (A) (A) (A) (A) (A) (A) (A) (A) (A) (A) (A) (A)
                 (A) (A) (A) (A) (A) (A) (A) (A) (A) (A) (A) (A)
                 (A) (A) (A) (A) (A) (A) (A) (A) (A) (A) (A) (A)
                 (A) (A) (A) (A) (A) (A) (A) (A) (A) (A) (A) (A)
                 (A) (A) (A) (A) (A)
 Harris functional with IExCor=  205 diagonalized for initial guess.
 ExpMin= 4.38D-02 ExpMax= 6.29D+03 ExpMxC= 9.49D+02 IAcc=2 IRadAn=         0 AccDes= 0.00D+00
 HarFok:  IExCor=  205 AccDes= 0.00D+00 IRadAn=         0 IDoV= 1
 ScaDFX=  1.000000  1.000000  1.000000  1.000000
 FoFCou: FMM=F IPFlag=           0 FMFlag=      100000 FMFlg1=           0
         NFxFlg=           0 DoJE=T BraDBF=F KetDBF=T FulRan=T
         Omega=  0.000000  0.000000  1.000000  0.000000  0.000000 ICntrl=     500 IOpCl=  0
         NMat0=    1 NMatS0=    1 NMatT0=    0 NMatD0=    1 NMtDS0=    0 NMtDT0=    0
         I1Cent=           4 NGrid=           0.
 Petite list used in FoFCou.
 Requested convergence on RMS density matrix=1.00D-08 within 128 cycles.
 Requested convergence on MAX density matrix=1.00D-06.
 Requested convergence on             energy=1.00D-06.
 No special actions if energy rises.
 Keep R1 ints in memory in canonical form, NReq=19320253.
 SCF Done:  E(RHF) =  -95.2422658903     A.U. after    9 cycles
             Convg  =    0.9538D-08             -V/T =  2.0003
 Calling FoFJK, ICntrl=      2127 FMM=F ISym2X=0 I1Cent= 0 IOpClX= 0 NMat=1 NMatS=1 NMatT=0.
 ***** Axes restored to original set *****
 -------------------------------------------------------------------
 Center     Atomic                   Forces (Hartrees/Bohr)
 Number     Number              X              Y              Z
 -------------------------------------------------------------------
      1        7          -0.007414233    0.006824823   -0.000212101
      2        6           0.003856694    0.000517097    0.000081714
      3        1          -0.000773246   -0.000141033   -0.000344590
      4        1          -0.000322963    0.000317271   -0.000006452
      5        1          -0.000818868   -0.000135339    0.000351924
      6        1           0.005563313   -0.007839754    0.000048118
      7        1          -0.000090697    0.000456935    0.000081387
 -------------------------------------------------------------------
 Cartesian Forces:  Max     0.007839754 RMS     0.003170809

 GradGradGradGradGradGradGradGradGradGradGradGradGradGradGradGradGradGrad
 Berny optimization.
 Using GEDIIS/GDIIS optimizer.
 Internal  Forces:  Max     0.009563706 RMS     0.002193767
 Search for a local minimum.
 Step number   6 out of a maximum of   31
 All quantities printed in internal units (Hartrees-Bohrs-Radians)
 Mixed Optimization -- RFO/linear search
 Update second derivatives using D2CorX and points    3    4    5    6
 DE= -5.01D-04 DEPred=-6.83D-04 R= 7.34D-01
 SS=  1.41D+00  RLast= 6.36D-02 DXNew= 7.1352D-01 1.9068D-01
 Trust test= 7.34D-01 RLast= 6.36D-02 DXMaxT set to 4.24D-01
 Use linear search instead of GDIIS.
     Eigenvalues ---    0.00230   0.00230   0.06517   0.07051   0.11398
     Eigenvalues ---    0.15963   0.15999   0.16002   0.16363   0.32171
     Eigenvalues ---    0.35866   0.35995   0.38843   0.47076   0.50023
     Eigenvalues --- 1000.000001000.000001000.000001000.000001000.00000
     Eigenvalues --- 1000.00000
 RFO step:  Lambda=-1.42151449D-04 EMin= 2.29803521D-03
 Quartic linear search produced a step of -0.21980.
 Iteration  1 RMS(Cart)=  0.00690592 RMS(Int)=  0.00005101
 Iteration  2 RMS(Cart)=  0.00004335 RMS(Int)=  0.00002440
 Iteration  3 RMS(Cart)=  0.00000000 RMS(Int)=  0.00002440
 Variable       Old X    -DE/DX   Delta X   Delta X   Delta X     New X
                                 (Linear)    (Quad)   (Total)
    R1        2.69946   0.00192   0.01044  -0.00568   0.00476   2.70422
    R2        1.88444  -0.00956  -0.00768  -0.01138  -0.01906   1.86538
    R3        1.86491  -0.00033  -0.00060   0.00028  -0.00032   1.86459
    R4        2.05848  -0.00065  -0.00015  -0.00161  -0.00176   2.05673
    R5        2.04843  -0.00040  -0.00008  -0.00088  -0.00096   2.04747
    R6        2.05844  -0.00068  -0.00015  -0.00164  -0.00179   2.05665
    A1        2.12563  -0.00142   0.00075  -0.01078  -0.01009   2.11554
    A2        2.10900   0.00102   0.00016   0.00486   0.00496   2.11396
    A3        2.04854   0.00041  -0.00091   0.00580   0.00483   2.05337
    A4        1.97088  -0.00060   0.00173  -0.00593  -0.00420   1.96669
    A5        1.90426  -0.00002   0.00225  -0.00339  -0.00113   1.90314
    A6        1.97060  -0.00068   0.00175  -0.00624  -0.00449   1.96611
    A7        1.86752   0.00039  -0.00220   0.00548   0.00329   1.87080
    A8        1.87758   0.00061  -0.00183   0.00587   0.00404   1.88162
    A9        1.86748   0.00041  -0.00220   0.00547   0.00328   1.87076
    D1        1.06578  -0.00013   0.00052  -0.01076  -0.01023   1.05555
    D2        3.14003  -0.00003   0.00038  -0.00988  -0.00950   3.13053
    D3       -1.06912   0.00005   0.00026  -0.00922  -0.00896  -1.07809
    D4       -2.06982  -0.00005  -0.00034   0.01172   0.01139  -2.05844
    D5        0.00443   0.00005  -0.00047   0.01259   0.01212   0.01655
    D6        2.07846   0.00013  -0.00060   0.01325   0.01265   2.09111
         Item               Value     Threshold  Converged?
 Maximum Force            0.009564     0.000450     NO 
 RMS     Force            0.002194     0.000300     NO 
 Maximum Displacement     0.021923     0.001800     NO 
 RMS     Displacement     0.006905     0.001200     NO 
 Predicted change in Energy=-1.149364D-04
 GradGradGradGradGradGradGradGradGradGradGradGradGradGradGradGradGradGrad

                          Input orientation:                          
 ---------------------------------------------------------------------
 Center     Atomic      Atomic             Coordinates (Angstroms)
 Number     Number       Type             X           Y           Z
 ---------------------------------------------------------------------
      1          7           0       -0.434670    0.085226   -0.006232
      2          6           0        0.995291    0.030613   -0.001215
      3          1           0        1.430066    0.498017    0.880294
      4          1           0        1.309439   -1.006320   -0.001681
      5          1           0        1.435736    0.500460   -0.878550
      6          1           0       -0.913636    0.948310    0.002717
      7          1           0       -0.976546   -0.739291    0.004551
 ---------------------------------------------------------------------
                    Distance matrix (angstroms):
                    1          2          3          4          5
     1  N    0.000000
     2  C    1.431013   0.000000
     3  H    2.105603   1.088372   0.000000
     4  H    2.057525   1.083475   1.747987   0.000000
     5  H    2.105178   1.088331   1.758856   1.747923   0.000000
     6  H    0.987119   2.118063   2.542803   2.960180   2.548873
     7  H    0.986699   2.116821   2.844229   2.301537   2.852360
                    6          7
     6  H    0.000000
     7  H    1.688775   0.000000
 Stoichiometry    CH5N
 Framework group  C1[X(CH5N)]
 Deg. of freedom    15
 Full point group                 C1      NOp   1
 Largest Abelian subgroup         C1      NOp   1
 Largest concise Abelian subgroup C1      NOp   1
                         Standard orientation:                         
 ---------------------------------------------------------------------
 Center     Atomic      Atomic             Coordinates (Angstroms)
 Number     Number       Type             X           Y           Z
 ---------------------------------------------------------------------
      1          7           0        0.724989   -0.003436   -0.003024
      2          6           0       -0.706019   -0.002648    0.000447
      3          1           0       -1.123855   -0.485156    0.882009
      4          1           0       -1.058950    1.021731   -0.001470
      5          1           0       -1.127530   -0.489648   -0.876837
      6          1           0        1.236073   -0.847881    0.007358
      7          1           0        1.235454    0.840893    0.007429
 ---------------------------------------------------------------------
 Rotational constants (GHZ):    111.6263382     23.3529936     21.9252644
 Standard basis: 6-311+G(2df,p) (5D, 7F)
 There are    98 symmetry adapted basis functions of A   symmetry.
 Integral buffers will be    131072 words long.
 Raffenetti 1 integral format.
 Two-electron integral symmetry is turned on.
    98 basis functions,   144 primitive gaussians,   108 cartesian basis functions
     9 alpha electrons        9 beta electrons
       nuclear repulsion energy        42.5368886772 Hartrees.
 NAtoms=    7 NActive=    7 NUniq=    7 SFac= 7.50D-01 NAtFMM=   80 NAOKFM=F Big=F
 One-electron integrals computed using PRISM.
 NBasis=    98 RedAO= T  NBF=    98
 NBsUse=    98 1.00D-06 NBFU=    98
 Initial guess read from the read-write file.
 B after Tr=     0.000000    0.000000    0.000000
         Rot=    1.000000    0.000000    0.000000    0.000000 Ang=   0.00 deg.
 Initial guess orbital symmetries:
       Occupied  (A) (A) (A) (A) (A) (A) (A) (A) (A)
       Virtual   (A) (A) (A) (A) (A) (A) (A) (A) (A) (A) (A) (A)
                 (A) (A) (A) (A) (A) (A) (A) (A) (A) (A) (A) (A)
                 (A) (A) (A) (A) (A) (A) (A) (A) (A) (A) (A) (A)
                 (A) (A) (A) (A) (A) (A) (A) (A) (A) (A) (A) (A)
                 (A) (A) (A) (A) (A) (A) (A) (A) (A) (A) (A) (A)
                 (A) (A) (A) (A) (A) (A) (A) (A) (A) (A) (A) (A)
                 (A) (A) (A) (A) (A) (A) (A) (A) (A) (A) (A) (A)
                 (A) (A) (A) (A) (A)
 Harris functional with IExCor=  205 diagonalized for initial guess.
 ExpMin= 4.38D-02 ExpMax= 6.29D+03 ExpMxC= 9.49D+02 IAcc=2 IRadAn=         0 AccDes= 0.00D+00
 HarFok:  IExCor=  205 AccDes= 0.00D+00 IRadAn=         0 IDoV= 1
 ScaDFX=  1.000000  1.000000  1.000000  1.000000
 FoFCou: FMM=F IPFlag=           0 FMFlag=      100000 FMFlg1=           0
         NFxFlg=           0 DoJE=T BraDBF=F KetDBF=T FulRan=T
         Omega=  0.000000  0.000000  1.000000  0.000000  0.000000 ICntrl=     500 IOpCl=  0
         NMat0=    1 NMatS0=    1 NMatT0=    0 NMatD0=    1 NMtDS0=    0 NMtDT0=    0
         I1Cent=           4 NGrid=           0.
 Petite list used in FoFCou.
 Requested convergence on RMS density matrix=1.00D-08 within 128 cycles.
 Requested convergence on MAX density matrix=1.00D-06.
 Requested convergence on             energy=1.00D-06.
 No special actions if energy rises.
 Keep R1 ints in memory in canonical form, NReq=19320253.
 SCF Done:  E(RHF) =  -95.2423844214     A.U. after   10 cycles
             Convg  =    0.2459D-08             -V/T =  2.0001
 Calling FoFJK, ICntrl=      2127 FMM=F ISym2X=0 I1Cent= 0 IOpClX= 0 NMat=1 NMatS=1 NMatT=0.
 ***** Axes restored to original set *****
 -------------------------------------------------------------------
 Center     Atomic                   Forces (Hartrees/Bohr)
 Number     Number              X              Y              Z
 -------------------------------------------------------------------
      1        7          -0.000565084   -0.000681703   -0.001041686
      2        6           0.000908746   -0.000257067    0.000371257
      3        1          -0.000046255   -0.000060665   -0.000122878
      4        1           0.000134605    0.000168495   -0.000031877
      5        1          -0.000283980   -0.000035853    0.000162989
      6        1          -0.000281332    0.000593136    0.000296128
      7        1           0.000133300    0.000273658    0.000366067
 -------------------------------------------------------------------
 Cartesian Forces:  Max     0.001041686 RMS     0.000426566

 GradGradGradGradGradGradGradGradGradGradGradGradGradGradGradGradGradGrad
 Berny optimization.
 Using GEDIIS/GDIIS optimizer.
 Internal  Forces:  Max     0.000720987 RMS     0.000277020
 Search for a local minimum.
 Step number   7 out of a maximum of   31
 All quantities printed in internal units (Hartrees-Bohrs-Radians)
 Mixed Optimization -- En-DIIS/RFO-DIIS
 Update second derivatives using D2CorX and points    3    4    5    6    7
 DE= -1.19D-04 DEPred=-1.15D-04 R= 1.03D+00
 SS=  1.41D+00  RLast= 3.65D-02 DXNew= 7.1352D-01 1.0948D-01
 Trust test= 1.03D+00 RLast= 3.65D-02 DXMaxT set to 4.24D-01
 Use linear search instead of GDIIS.
     Eigenvalues ---    0.00192   0.00230   0.06556   0.07075   0.11666
     Eigenvalues ---    0.15855   0.15988   0.16054   0.16427   0.33979
     Eigenvalues ---    0.35865   0.35990   0.41528   0.47495   0.54877
     Eigenvalues --- 1000.000001000.000001000.000001000.000001000.00000
     Eigenvalues --- 1000.00000
 RFO step:  Lambda=-8.64807637D-05 EMin= 1.91639128D-03
 Quartic linear search produced a step of  0.02562.
 Iteration  1 RMS(Cart)=  0.02270221 RMS(Int)=  0.00182093
 Iteration  2 RMS(Cart)=  0.00118173 RMS(Int)=  0.00138527
 Iteration  3 RMS(Cart)=  0.00000100 RMS(Int)=  0.00138527
 Iteration  4 RMS(Cart)=  0.00000000 RMS(Int)=  0.00138527
 Variable       Old X    -DE/DX   Delta X   Delta X   Delta X     New X
                                 (Linear)    (Quad)   (Total)
    R1        2.70422   0.00072   0.00012   0.00095   0.00107   2.70529
    R2        1.86538   0.00066  -0.00049  -0.00501  -0.00550   1.85988
    R3        1.86459  -0.00030  -0.00001  -0.00024  -0.00025   1.86434
    R4        2.05673  -0.00014  -0.00005  -0.00077  -0.00082   2.05591
    R5        2.04747  -0.00012  -0.00002  -0.00062  -0.00064   2.04683
    R6        2.05665  -0.00026  -0.00005  -0.00113  -0.00118   2.05547
    A1        2.11554  -0.00008  -0.00026  -0.00451  -0.00840   2.10713
    A2        2.11396   0.00007   0.00013   0.00084  -0.00266   2.11130
    A3        2.05337   0.00000   0.00012  -0.00003  -0.00361   2.04977
    A4        1.96669   0.00003  -0.00011  -0.00191  -0.00203   1.96466
    A5        1.90314   0.00032  -0.00003   0.00034   0.00031   1.90345
    A6        1.96611  -0.00035  -0.00012  -0.00492  -0.00505   1.96106
    A7        1.87080  -0.00008   0.00008   0.00269   0.00277   1.87358
    A8        1.88162   0.00008   0.00010   0.00186   0.00195   1.88358
    A9        1.87076   0.00000   0.00008   0.00254   0.00262   1.87338
    D1        1.05555  -0.00024  -0.00026  -0.07289  -0.07296   0.98259
    D2        3.13053  -0.00011  -0.00024  -0.07050  -0.07055   3.05998
    D3       -1.07809  -0.00011  -0.00023  -0.07017  -0.07021  -1.14830
    D4       -2.05844   0.00011   0.00029   0.08922   0.08932  -1.96911
    D5        0.01655   0.00024   0.00031   0.09161   0.09173   0.10828
    D6        2.09111   0.00024   0.00032   0.09194   0.09207   2.18318
         Item               Value     Threshold  Converged?
 Maximum Force            0.000721     0.000450     NO 
 RMS     Force            0.000277     0.000300     YES
 Maximum Displacement     0.069480     0.001800     NO 
 RMS     Displacement     0.022807     0.001200     NO 
 Predicted change in Energy=-4.048890D-05
 GradGradGradGradGradGradGradGradGradGradGradGradGradGradGradGradGradGrad

                          Input orientation:                          
 ---------------------------------------------------------------------
 Center     Atomic      Atomic             Coordinates (Angstroms)
 Number     Number       Type             X           Y           Z
 ---------------------------------------------------------------------
      1          7           0       -0.434763    0.084410   -0.042999
      2          6           0        0.995353    0.029819   -0.008276
      3          1           0        1.409497    0.497244    0.882571
[...]
     4   1    -0.25  -0.01  -0.06    -0.38   0.07   0.27     0.38   0.08   0.07
     5   1    -0.25   0.01  -0.06    -0.38  -0.07   0.27    -0.38   0.08  -0.07
     6   1     0.39   0.01  -0.04     0.09  -0.08  -0.16    -0.51  -0.11   0.10
     7   1     0.39  -0.01  -0.03     0.09   0.08  -0.16     0.51  -0.11  -0.10
                     7                      8                      9
                     A                      A                      A
 Frequencies --  1581.2435              1615.3285              1633.1692
 Red. masses --     1.1717                 1.0564                 1.0363
 Frc consts  --     1.7261                 1.6241                 1.6285
 IR Inten    --     2.6964                 6.7077                 3.9239
 Raman Activ --     1.3467                 8.6811                 9.9374
 Depolar (P) --     0.7459                 0.7334                 0.7500
 Depolar (U) --     0.8544                 0.8462                 0.8571
  Atom  AN      X      Y      Z        X      Y      Z        X      Y      Z
     1   7     0.01   0.00   0.00     0.00   0.00   0.01     0.00  -0.02   0.00
     2   6     0.12   0.00   0.02    -0.04   0.00   0.05     0.00  -0.05   0.00
     3   1    -0.41   0.00  -0.15     0.50   0.00   0.20     0.00   0.70   0.00
     4   1    -0.55  -0.31  -0.03    -0.04  -0.31  -0.51    -0.31   0.05   0.39
     5   1    -0.55   0.31  -0.03    -0.04   0.31  -0.50     0.31   0.06  -0.39
     6   1    -0.04  -0.02   0.00     0.01   0.00  -0.01     0.07   0.01  -0.01
     7   1    -0.04   0.02   0.00     0.01   0.00  -0.01    -0.07   0.01   0.01
                    10                     11                     12
                     A                      A                      A
 Frequencies --  1794.7871              3117.5452              3193.5386
 Red. masses --     1.0918                 1.0563                 1.0783
 Frc consts  --     2.0721                 6.0487                 6.4792
 IR Inten    --    31.5700                94.6307                47.9154
 Raman Activ --     3.0548               130.6118                97.4432
 Depolar (P) --     0.6804                 0.1383                 0.2927
 Depolar (U) --     0.8098                 0.2431                 0.4529
  Atom  AN      X      Y      Z        X      Y      Z        X      Y      Z
     1   7    -0.08   0.00  -0.02     0.00   0.00   0.00     0.00   0.00   0.00
     2   6     0.01   0.00  -0.02     0.03   0.00  -0.06     0.03   0.00   0.07
     3   1     0.03   0.00  -0.02    -0.29   0.00   0.90     0.09   0.00  -0.26
     4   1    -0.06  -0.01   0.02    -0.08   0.17  -0.12    -0.25   0.56  -0.30
     5   1    -0.06   0.01   0.02    -0.08  -0.17  -0.12    -0.24  -0.55  -0.30
     6   1     0.51   0.41   0.25     0.00   0.01   0.00     0.00  -0.01   0.01
     7   1     0.51  -0.41   0.25     0.00  -0.01   0.00     0.00   0.01   0.01
                    13                     14                     15
                     A                      A                      A
 Frequencies --  3225.6591              3730.0851              3806.8030
 Red. masses --     1.1041                 1.0498                 1.0945
 Frc consts  --     6.7687                 8.6055                 9.3454
 IR Inten    --    44.9968                 0.3808                 3.6808
 Raman Activ --    67.6641                97.8608                52.4415
 Depolar (P) --     0.7500                 0.0976                 0.7499
 Depolar (U) --     0.8571                 0.1778                 0.8571
  Atom  AN      X      Y      Z        X      Y      Z        X      Y      Z
     1   7     0.00   0.00   0.00     0.04   0.00   0.04     0.00   0.08   0.00
     2   6     0.00   0.09   0.00     0.00   0.00   0.00     0.00   0.00   0.00
     3   1     0.00   0.02   0.00     0.00   0.00  -0.01     0.00   0.00   0.00
     4   1     0.26  -0.56   0.33     0.00   0.01   0.00     0.01  -0.01   0.01
     5   1    -0.26  -0.57  -0.33     0.00  -0.01   0.00    -0.01  -0.01  -0.01
     6   1     0.00   0.01  -0.01    -0.28   0.59  -0.27     0.29  -0.56   0.30
     7   1     0.00   0.01   0.01    -0.28  -0.58  -0.27    -0.29  -0.57  -0.30

 -------------------
 - Thermochemistry -
 -------------------
 Temperature   298.150 Kelvin.  Pressure   1.00000 Atm.
 Atom     1 has atomic number  7 and mass  14.00307
 Atom     2 has atomic number  6 and mass  12.00000
 Atom     3 has atomic number  1 and mass   1.00783
 Atom     4 has atomic number  1 and mass   1.00783
 Atom     5 has atomic number  1 and mass   1.00783
 Atom     6 has atomic number  1 and mass   1.00783
 Atom     7 has atomic number  1 and mass   1.00783
 Molecular mass:    31.04220 amu.
 Principal axes and moments of inertia in atomic units:
                           1         2         3
     Eigenvalues --    16.99795  77.93928  81.27686
           X            0.99936  -0.00002   0.03577
           Y            0.00002   1.00000   0.00005
           Z           -0.03577  -0.00004   0.99936
 This molecule is an asymmetric top.
 Rotational symmetry number  1.
 Rotational temperatures (Kelvin)      5.09554     1.11130     1.06566
 Rotational constants (GHZ):         106.17402    23.15573    22.20486
 Zero-point vibrational energy     178266.4 (Joules/Mol)
                                   42.60669 (Kcal/Mol)
 Warning -- explicit consideration of   1 degrees of freedom as
           vibrations may cause significant error
 Vibrational temperatures:    457.05  1284.75  1496.06  1633.64  1821.63
          (Kelvin)           2091.53  2275.05  2324.09  2349.76  2582.30
                             4485.45  4594.78  4641.00  5366.75  5477.13
 
 Zero-point correction=                           0.067898 (Hartree/Particle)
 Thermal correction to Energy=                    0.071267
 Thermal correction to Enthalpy=                  0.072212
 Thermal correction to Gibbs Free Energy=         0.045026
 Sum of electronic and zero-point Energies=            -95.181988
 Sum of electronic and thermal Energies=               -95.178619
 Sum of electronic and thermal Enthalpies=             -95.177674
 Sum of electronic and thermal Free Energies=          -95.204860
 
                     E (Thermal)             CV                S
                      KCal/Mol        Cal/Mol-Kelvin    Cal/Mol-Kelvin
 Total                   44.721              9.130             57.217
 Electronic               0.000              0.000              0.000
 Translational            0.889              2.981             36.231
 Rotational               0.889              2.981             19.316
 Vibrational             42.944              3.169              1.671
 Vibration     1          0.704              1.640              1.322
                       Q            Log10(Q)             Ln(Q)
 Total Bot       0.194804D-20        -20.710403        -47.687465
 Total V=0       0.331498D+11         10.520480         24.224301
 Vib (Bot)       0.771448D-31        -31.112693        -71.639623
 Vib (Bot)    1  0.592580D+00         -0.227253         -0.523270
 Vib (V=0)       0.131277D+01          0.118190          0.272143
 Vib (V=0)    1  0.127534D+01          0.105626          0.243212
 Electronic      0.100000D+01          0.000000          0.000000
 Translational   0.679804D+07          6.832384         15.732145
 Rotational      0.371455D+04          3.569906          8.220013
 ***** Axes restored to original set *****
 -------------------------------------------------------------------
 Center     Atomic                   Forces (Hartrees/Bohr)
 Number     Number              X              Y              Z
 -------------------------------------------------------------------
      1        7          -0.000008863   -0.000038389   -0.000072064
      2        6          -0.000036780    0.000130340    0.000033084
      3        1           0.000064889   -0.000056882    0.000007392
      4        1          -0.000082430    0.000067460    0.000011290
      5        1          -0.000005220   -0.000041878    0.000002161
      6        1           0.000064528   -0.000000589   -0.000022550
      7        1           0.000003877   -0.000060064    0.000040688
 -------------------------------------------------------------------
 Cartesian Forces:  Max     0.000130340 RMS     0.000052049

 GradGradGradGradGradGradGradGradGradGradGradGradGradGradGradGradGradGrad
 Berny optimization.
 Internal  Forces:  Max     0.000122381 RMS     0.000054359
 Search for a local minimum.
 Step number   1 out of a maximum of    2
 All quantities printed in internal units (Hartrees-Bohrs-Radians)
 Second derivative matrix not updated -- analytic derivatives used.
     Eigenvalues ---    0.00247   0.03179   0.07187   0.07309   0.14779
     Eigenvalues ---    0.15784   0.16064   0.20323   0.22405   0.34425
     Eigenvalues ---    0.36175   0.36720   0.41223   0.50714   0.50860
     Eigenvalues --- 1000.000001000.000001000.000001000.000001000.00000
     Eigenvalues --- 1000.00000
 Angle between quadratic step and forces=  61.40 degrees.
 Linear search not attempted -- first point.
 Iteration  1 RMS(Cart)=  0.00050260 RMS(Int)=  0.00000021
 Iteration  2 RMS(Cart)=  0.00000019 RMS(Int)=  0.00000009
 Variable       Old X    -DE/DX   Delta X   Delta X   Delta X     New X
                                 (Linear)    (Quad)   (Total)
    R1        2.74218  -0.00005   0.00000  -0.00010  -0.00010   2.74208
    R2        1.88768  -0.00003   0.00000  -0.00005  -0.00005   1.88764
    R3        1.88752   0.00006   0.00000   0.00011   0.00011   1.88764
    R4        2.05926   0.00001   0.00000   0.00001   0.00001   2.05927
    R5        2.04790  -0.00009   0.00000  -0.00020  -0.00020   2.04771
    R6        2.04780  -0.00003   0.00000  -0.00009  -0.00009   2.04771
    A1        1.94649  -0.00007   0.00000  -0.00026  -0.00026   1.94623
    A2        1.94642  -0.00003   0.00000  -0.00019  -0.00019   1.94623
    A3        1.87803   0.00006   0.00000   0.00032   0.00032   1.87835
    A4        1.99690   0.00012   0.00000   0.00065   0.00065   1.99755
    A5        1.90949  -0.00012   0.00000  -0.00061  -0.00061   1.90888
    A6        1.90875   0.00001   0.00000   0.00013   0.00013   1.90888
    A7        1.88541  -0.00003   0.00000  -0.00035  -0.00035   1.88506
    A8        1.88478  -0.00001   0.00000   0.00028   0.00028   1.88506
    A9        1.87460   0.00001   0.00000  -0.00012  -0.00012   1.87447
    D1        1.04870   0.00004   0.00000   0.00144   0.00144   1.05014
    D2       -3.11660   0.00001   0.00000   0.00098   0.00098  -3.11562
    D3       -1.06782  -0.00004   0.00000   0.00055   0.00055  -1.06728
    D4       -1.05148   0.00004   0.00000   0.00134   0.00134  -1.05014
    D5        1.06641   0.00001   0.00000   0.00088   0.00088   1.06728
    D6        3.11518  -0.00004   0.00000   0.00044   0.00044   3.11562
         Item               Value     Threshold  Converged?
 Maximum Force            0.000122     0.000450     YES
 RMS     Force            0.000054     0.000300     YES
 Maximum Displacement     0.001287     0.001800     YES
 RMS     Displacement     0.000503     0.001200     YES
 Predicted change in Energy=-1.622469D-07
 Optimization completed.
    -- Stationary point found.
                           ----------------------------
                           !   Optimized Parameters   !
                           ! (Angstroms and Degrees)  !
 --------------------------                            --------------------------
 ! Name  Definition              Value          Derivative Info.                !
 --------------------------------------------------------------------------------
 ! R1    R(1,2)                  1.4511         -DE/DX =   -0.0001              !
 ! R2    R(1,6)                  0.9989         -DE/DX =    0.0                 !
 ! R3    R(1,7)                  0.9988         -DE/DX =    0.0001              !
 ! R4    R(2,3)                  1.0897         -DE/DX =    0.0                 !
 ! R5    R(2,4)                  1.0837         -DE/DX =   -0.0001              !
 ! R6    R(2,5)                  1.0836         -DE/DX =    0.0                 !
 ! A1    A(2,1,6)              111.5257         -DE/DX =   -0.0001              !
 ! A2    A(2,1,7)              111.5218         -DE/DX =    0.0                 !
 ! A3    A(6,1,7)              107.6031         -DE/DX =    0.0001              !
 ! A4    A(1,2,3)              114.4139         -DE/DX =    0.0001              !
 ! A5    A(1,2,4)              109.4059         -DE/DX =   -0.0001              !
 ! A6    A(1,2,5)              109.3635         -DE/DX =    0.0                 !
 ! A7    A(3,2,4)              108.0259         -DE/DX =    0.0                 !
 ! A8    A(3,2,5)              107.99           -DE/DX =    0.0                 !
 ! A9    A(4,2,5)              107.4065         -DE/DX =    0.0                 !
 ! D1    D(6,1,2,3)             60.0862         -DE/DX =    0.0                 !
 ! D2    D(6,1,2,4)           -178.5679         -DE/DX =    0.0                 !
 ! D3    D(6,1,2,5)            -61.1817         -DE/DX =    0.0                 !
 ! D4    D(7,1,2,3)            -60.2454         -DE/DX =    0.0                 !
 ! D5    D(7,1,2,4)             61.1005         -DE/DX =    0.0                 !
 ! D6    D(7,1,2,5)            178.4867         -DE/DX =    0.0                 !
 --------------------------------------------------------------------------------
 GradGradGradGradGradGradGradGradGradGradGradGradGradGradGradGradGradGrad

 1\1\GINC-C051\Freq\RHF\6-311+G(2df,p)\C1H5N1\RMCCULL2HS2\29-May-2015\0
 \\#N Geom=AllCheck Guess=TCheck SCRF=Check GenChk RHF/6-311+G(2df,p) F
 req\\title\\0,1\N,-0.4584657631,0.0017924034,-0.2444631408\C,0.9767743
 443,0.0025787604,-0.030509204\H,1.2851704897,0.3528266777,0.9542204396
 \H,1.3614058467,-1.0016190805,-0.1648969601\H,1.450460622,0.6332885761
 ,-0.7735556975\H,-0.843519588,0.9187323762,-0.1506900445\H,-0.92614637
 47,-0.5905852662,0.4097788563\\Version=EM64L-G09RevA.02\State=1-A\HF=-
 95.2498861\RMSD=6.755e-10\RMSF=5.205e-05\ZeroPoint=0.0678981\Thermal=0
 .0712674\Dipole=0.0729965,0.1851488,0.5092287\DipoleDeriv=-0.7028023,-
 0.0333188,-0.1498864,-0.0308517,-0.3254941,-0.0924661,-0.1438508,-0.09
 28886,-0.563848,0.6251373,0.0143525,0.0962265,-0.0122329,0.2502607,0.0
 413539,0.0242228,0.0453036,0.359301,-0.0997508,-0.0178041,-0.0702044,-
 0.0434941,0.0199118,-0.0903826,-0.1389219,-0.0864949,-0.2014633,-0.020
 4277,0.0486965,-0.0000622,0.1091012,-0.1531164,-0.0230074,-0.0064736,-
 0.0347769,0.0558984,-0.0366308,-0.040818,0.0424114,-0.0904582,-0.02303
 92,0.0950421,0.0782527,0.1051455,-0.0582956,0.1185666,0.0173344,0.0348
 951,0.0510333,0.0458113,-0.0263192,0.0802393,-0.0659324,0.2728613,0.11
 59078,0.0115576,0.0466201,0.0169024,0.1856658,0.0957793,0.1065315,0.12
 96436,0.1355462\Polar=23.3393071,0.0241667,20.8736332,0.4295478,0.0029
 914,20.9408746\PolarDeriv=-4.2824008,-0.2985803,1.8427683,-2.2144912,-
 0.6149188,0.6617958,-0.7995821,2.7624384,-3.9594173,-0.8435868,-2.0952
 638,1.9741656,-3.7040595,-0.7857494,-2.5479151,1.0321784,2.1248403,-1.
 5069229,3.1452886,-0.374864,-2.8557108,0.5723065,0.4366209,-2.3590634,
 -0.3243058,-4.3743306,3.9044753,-0.1384573,1.4382846,-3.6605531,0.8998
 828,-0.1272561,1.982007,-5.2162048,-3.6957308,-3.3744714,2.0627278,0.8
 509777,0.5027568,2.3435892,0.4653695,1.8010877,0.8909384,1.52106,0.941
 9434,0.7089991,1.6280837,1.8357628,2.3111093,0.6716831,0.935429,3.3949
 103,2.0016226,7.233894,1.6580665,-2.2182941,1.9528165,-0.4329719,0.085
 097,0.3320958,-2.0168266,2.9479638,-7.1865958,0.2460151,-0.745853,-0.4
 938853,-0.4230814,0.2236454,-0.7274677,1.1528697,-0.9402819,-0.0896558
 ,2.2731022,1.5772734,1.2224401,-2.0070778,-0.8743727,1.3078675,1.51260
 12,2.0162048,2.5281564,-0.9881137,-2.046911,2.06674,-1.9103246,-0.9543
 808,-1.7626838,2.3835165,2.2968059,-3.4495654,-2.1090608,2.0251589,-1.
 8903055,0.088671,-0.428933,-0.2052968,2.49547,-3.142671,6.1498245,-0.3
 848796,0.2688509,0.5707983,0.5072747,-0.2861401,0.2530815,-0.6017009,0
 .0901791,-0.5991222,-2.7477235,-1.5616717,-0.7747653,1.6499742,0.93113
 71,-1.5384866,-1.7582951,-1.7306654,-2.3783864,1.4000232,1.5528087,-2.
 2930284,2.3191986,1.2581979,1.8675491,-2.1455692,-1.8774352,1.7858438\
 HyperPolar=13.4780894,0.3338127,2.2763065,-10.6290672,2.1269732,-0.178
 4238,-5.3802078,4.0375228,10.9063364,7.8006139\PG=C01 [X(C1H5N1)]\NIma
 g=0\\0.60880168,-0.03948009,0.72710352,-0.13296636,-0.16506565,0.32239
 142,-0.26168215,0.00667249,-0.00277936,0.55682694,-0.01142030,-0.11479
 309,0.01375382,-0.00190346,0.65656371,-0.05147175,0.01643536,-0.083826
 84,-0.02057381,-0.01603171,0.61601905,-0.02577979,-0.01291519,-0.03915
 081,-0.07368218,-0.01869378,-0.05152390,0.08663887,-0.00139752,0.00530
 916,0.00167468,-0.01931370,-0.09148002,-0.07535050,0.02337186,0.086571
 95,-0.00824359,-0.00001512,0.00334615,-0.05316835,-0.07525499,-0.27411
 395,0.06724901,0.08594659,0.29630484,-0.02027477,0.04232882,0.00030095
 ,-0.08558227,0.07686504,0.01184780,0.00432024,-0.00748593,0.00030163,0
 .10226878,0.00072075,0.00470258,0.00127456,0.08770298,-0.30188180,-0.0
 3266610,0.00232479,-0.00991624,-0.00230426,-0.09670621,0.32325394,-0.0
 0227494,0.00732095,0.00228942,0.01239136,-0.03546913,-0.06430234,0.010
 71703,-0.03328534,-0.00346293,-0.01004688,0.03720477,0.06005652,-0.024
 29166,-0.02942896,0.02680483,-0.10203249,-0.06111268,0.07413645,0.0051
 8543,0.00560253,-0.00455380,0.00652437,0.00608624,-0.00974445,0.121691
 33,0.00018976,0.00246099,-0.00144898,-0.06887155,-0.15513646,0.1124372
 1,0.00607887,0.00936607,-0.00909003,-0.01432314,-0.01898211,0.02471806
 ,0.07656820,0.16013818,-0.00284881,-0.00573601,0.00849204,0.08189237,0
 .11478434,-0.19461677,0.01264236,0.02038922,-0.02364052,-0.00366305,-0
 .00307575,0.00485182,-0.08676458,-0.12550838,0.20386823,-0.12497662,0.
 13248090,0.02365861,-0.01509514,0.04395686,0.00544249,0.00164271,-0.00
 012699,-0.00086753,-0.00868591,-0.00100527,-0.00141565,0.00136161,-0.0
 0048895,0.00091344,0.13607779,0.14813254,-0.42390048,-0.01342809,-0.00
 464707,0.00367649,-0.00331178,-0.00067543,0.00067357,0.00056617,-0.000
 89073,0.00248860,0.00003058,0.00046073,0.00053474,0.00000632,-0.153451
 95,0.44108761,0.04376848,-0.06112888,-0.02814905,-0.00759522,0.0056562
 5,-0.00171878,0.00032943,0.00143387,0.00020847,0.00018172,-0.00026592,
 0.00054438,0.00097761,-0.00038855,-0.00012120,-0.02455450,0.02397135,0
 .02870893,-0.15179670,-0.09965796,0.12413214,-0.01875272,-0.02769168,0
 .03214272,0.00167472,-0.00065024,-0.00071738,0.00142955,0.00087673,0.0
 0037354,-0.00843860,0.00084681,-0.00217172,0.00967556,0.01107190,-0.01
 310752,0.16620819,-0.09674514,-0.20088267,0.16323965,0.00036031,0.0030
 5118,-0.00151249,0.00050888,-0.00052450,0.00015165,0.00021215,0.000335
 04,-0.00051990,0.00182394,0.00161860,-0.00085974,-0.02136459,-0.024560
 54,0.03072188,0.11520445,0.22096290,0.15403697,0.20818936,-0.22454313,
 -0.01016698,-0.00743859,0.00255964,-0.00026313,-0.00080853,0.00135794,
 0.00107782,-0.00016730,0.00002314,-0.00085605,-0.00071934,0.00116641,-
 0.00317686,-0.00783455,0.00052726,-0.14065177,-0.19122105,0.21890874\\
 0.00000886,0.00003839,0.00007206,0.00003678,-0.00013034,-0.00003308,-0
 .00006489,0.00005688,-0.00000739,0.00008243,-0.00006746,-0.00001129,0.
 00000522,0.00004188,-0.00000216,-0.00006453,0.00000059,0.00002255,-0.0
 0000388,0.00006006,-0.00004069\\\@


 THE HURRIEDER I GO, THE BEHINDER I GET.
 Job cpu time:  0 days  0 hours  1 minutes  2.0 seconds.
 File lengths (MBytes):  RWF=      9 Int=      0 D2E=      0 Chk=      2 Scr=      1
 Normal termination of Gaussian 09 at Fri May 29 10:21:18 2015.
