 Entering Gaussian System, Link 0=g09
 Input=Gas-HF-6-311+G2dfp-Freq-Opt-HSNHH.inp
 Output=Gas-HF-6-311+G2dfp-Freq-Opt-HSNHH.log
 Initial command:
 /usr/local/g09/l1.exe /local/gaussian-tmp/3702319/Gau-17142.inp -scrdir=/local/gaussian-tmp/3702319/
 Entering Link 1 = /usr/local/g09/l1.exe PID=     17143.
  
 Copyright (c) 1988,1990,1992,1993,1995,1998,2003,2009, Gaussian, Inc.
                  All Rights Reserved.
  
 This is part of the Gaussian(R) 09 program.  It is based on
 the Gaussian(R) 03 system (copyright 2003, Gaussian, Inc.),
 the Gaussian(R) 98 system (copyright 1998, Gaussian, Inc.),
 the Gaussian(R) 94 system (copyright 1995, Gaussian, Inc.),
 the Gaussian 92(TM) system (copyright 1992, Gaussian, Inc.),
 the Gaussian 90(TM) system (copyright 1990, Gaussian, Inc.),
 the Gaussian 88(TM) system (copyright 1988, Gaussian, Inc.),
 the Gaussian 86(TM) system (copyright 1986, Carnegie Mellon
 University), and the Gaussian 82(TM) system (copyright 1983,
 Carnegie Mellon University). Gaussian is a federally registered
 trademark of Gaussian, Inc.
  
 This software contains proprietary and confidential information,
 including trade secrets, belonging to Gaussian, Inc.
  
 This software is provided under written license and may be
 used, copied, transmitted, or stored only in accord with that
 written license.
  
 The following legend is applicable only to US Government
 contracts under FAR:
  
                    RESTRICTED RIGHTS LEGEND
  
 Use, reproduction and disclosure by the US Government is
 subject to restrictions as set forth in subparagraphs (a)
 and (c) of the Commercial Computer Software - Restricted
 Rights clause in FAR 52.227-19.
  
 Gaussian, Inc.
 340 Quinnipiac St., Bldg. 40, Wallingford CT 06492
  
  
 ---------------------------------------------------------------
 Warning -- This program may not be used in any manner that
 competes with the business of Gaussian, Inc. or will provide
 assistance to any competitor of Gaussian, Inc.  The licensee
 of this program is prohibited from giving any competitor of
 Gaussian, Inc. access to this program.  By using this program,
 the user acknowledges that Gaussian, Inc. is engaged in the
 business of creating and licensing software in the field of
 computational chemistry and represents and warrants to the
 licensee that it is not a competitor of Gaussian, Inc. and that
 it will not use this program in any manner prohibited above.
 ---------------------------------------------------------------
  

 Cite this work as:
 Gaussian 09, Revision A.02,
 M. J. Frisch, G. W. Trucks, H. B. Schlegel, G. E. Scuseria, 
 M. A. Robb, J. R. Cheeseman, G. Scalmani, V. Barone, B. Mennucci, 
 G. A. Petersson, H. Nakatsuji, M. Caricato, X. Li, H. P. Hratchian, 
 A. F. Izmaylov, J. Bloino, G. Zheng, J. L. Sonnenberg, M. Hada, 
 M. Ehara, K. Toyota, R. Fukuda, J. Hasegawa, M. Ishida, T. Nakajima, 
 Y. Honda, O. Kitao, H. Nakai, T. Vreven, J. A. Montgomery, Jr., 
 J. E. Peralta, F. Ogliaro, M. Bearpark, J. J. Heyd, E. Brothers, 
 K. N. Kudin, V. N. Staroverov, R. Kobayashi, J. Normand, 
 K. Raghavachari, A. Rendell, J. C. Burant, S. S. Iyengar, J. Tomasi, 
 M. Cossi, N. Rega, J. M. Millam, M. Klene, J. E. Knox, J. B. Cross, 
 V. Bakken, C. Adamo, J. Jaramillo, R. Gomperts, R. E. Stratmann, 
 O. Yazyev, A. J. Austin, R. Cammi, C. Pomelli, J. W. Ochterski, 
 R. L. Martin, K. Morokuma, V. G. Zakrzewski, G. A. Voth, 
 P. Salvador, J. J. Dannenberg, S. Dapprich, A. D. Daniels, 
 O. Farkas, J. B. Foresman, J. V. Ortiz, J. Cioslowski, 
 and D. J. Fox, Gaussian, Inc., Wallingford CT, 2009.
 
 ******************************************
 Gaussian 09:  EM64L-G09RevA.02 11-Jun-2009
                29-May-2015 
 ******************************************
 %chk=foooo
 %mem=10GB
 %nproc=8
 Will use up to    8 processors via shared memory.
 ----------------------------
 # HF/6-311+G(2df,p) Opt Freq
 ----------------------------
 1/18=20,19=15,38=1/1,3;
 2/9=110,12=2,17=6,18=5,40=1/2;
 3/5=4,6=6,7=114,11=9,16=1,25=1,30=1,71=1/1,2,3;
 4//1;
 5/5=2,38=5/2;
 6/7=2,8=2,9=2,10=2,28=1/1;
 7//1,2,3,16;
 1/18=20,19=15/3(2);
 2/9=110/2;
 99//99;
 2/9=110/2;
 3/5=4,6=6,7=114,11=9,16=1,25=1,30=1,71=1/1,2,3;
 4/5=5,16=3/1;
 5/5=2,38=5/2;
 7//1,2,3,16;
 1/18=20,19=15/3(-5);
 2/9=110/2;
 6/7=2,8=2,9=2,10=2,19=2,28=1/1;
 99/9=1/99;
 -----
 title
 -----
 Symbolic Z-matrix:
 Charge =  0 Multiplicity = 1
 7                     0.        1.02934  -0.05466 
 1                     0.92941   1.23389   0.87457 
 16                    0.       -1.02934  -0.05466 
 1                    -0.92941  -1.23389   0.87457 
 1                    -0.53713   1.67981  -0.59168 
 

 GradGradGradGradGradGradGradGradGradGradGradGradGradGradGradGradGradGrad
 Berny optimization.
 Initialization pass.
                           ----------------------------
                           !    Initial Parameters    !
                           ! (Angstroms and Degrees)  !
 --------------------------                            --------------------------
 ! Name  Definition              Value          Derivative Info.                !
 --------------------------------------------------------------------------------
 ! R1    R(1,2)                  1.3301         estimate D2E/DX2                !
 ! R2    R(1,3)                  2.0587         estimate D2E/DX2                !
 ! R3    R(1,5)                  1.0            estimate D2E/DX2                !
 ! R4    R(3,4)                  1.3301         estimate D2E/DX2                !
 ! A1    A(2,1,3)               98.8464         estimate D2E/DX2                !
 ! A2    A(2,1,5)              130.5768         estimate D2E/DX2                !
 ! A3    A(3,1,5)              130.5768         estimate D2E/DX2                !
 ! A4    A(1,3,4)               98.8464         estimate D2E/DX2                !
 ! D1    D(2,1,3,4)             90.0115         estimate D2E/DX2                !
 ! D2    D(5,1,3,4)            -89.9885         estimate D2E/DX2                !
 --------------------------------------------------------------------------------
 Trust Radius=3.00D-01 FncErr=1.00D-07 GrdErr=1.00D-07
 Number of steps in this run=  20 maximum allowed number of steps= 100.
 GradGradGradGradGradGradGradGradGradGradGradGradGradGradGradGradGradGrad

                          Input orientation:                          
 ---------------------------------------------------------------------
 Center     Atomic      Atomic             Coordinates (Angstroms)
 Number     Number       Type             X           Y           Z
 ---------------------------------------------------------------------
      1          7           0        0.000000    1.029341   -0.054660
      2          1           0        0.929412    1.233888    0.874565
      3         16           0        0.000000   -1.029341   -0.054660
      4          1           0       -0.929412   -1.233888    0.874565
      5          1           0       -0.537126    1.679808   -0.591678
 ---------------------------------------------------------------------
                    Distance matrix (angstroms):
                    1          2          3          4          5
     1  N    0.000000
     2  H    1.330077   0.000000
     3  S    2.058682   2.617149   0.000000
     4  H    2.617149   3.089522   1.330077   0.000000
     5  H    1.000000   2.121190   2.813606   3.285328   0.000000
 Stoichiometry    H3NS
 Framework group  C1[X(H3NS)]
 Deg. of freedom     9
 Full point group                 C1      NOp   1
 Largest Abelian subgroup         C1      NOp   1
 Largest concise Abelian subgroup C1      NOp   1
                         Standard orientation:                         
 ---------------------------------------------------------------------
 Center     Atomic      Atomic             Coordinates (Angstroms)
 Number     Number       Type             X           Y           Z
 ---------------------------------------------------------------------
      1          7           0       -1.321284   -0.047452    0.011038
      2          1           0       -1.551471    1.262426    0.029420
      3         16           0        0.734741   -0.006273   -0.085072
      4          1           0        1.000549   -0.010058    1.218169
      5          1           0       -1.955941   -0.819833    0.036301
 ---------------------------------------------------------------------
 Rotational constants (GHZ):    126.8201794      9.9928427      9.8691054
 Standard basis: 6-311+G(2df,p) (5D, 7F)
 There are    94 symmetry adapted basis functions of A   symmetry.
 Integral buffers will be    131072 words long.
 Raffenetti 1 integral format.
 Two-electron integral symmetry is turned on.
    94 basis functions,   142 primitive gaussians,   104 cartesian basis functions
    13 alpha electrons       13 beta electrons
       nuclear repulsion energy        49.8856947859 Hartrees.
 NAtoms=    5 NActive=    5 NUniq=    5 SFac= 7.50D-01 NAtFMM=   80 NAOKFM=F Big=F
 One-electron integrals computed using PRISM.
 NBasis=    94 RedAO= T  NBF=    94
 NBsUse=    94 1.00D-06 NBFU=    94
 Harris functional with IExCor=  205 diagonalized for initial guess.
 ExpMin= 4.05D-02 ExpMax= 9.34D+04 ExpMxC= 3.17D+03 IAcc=2 IRadAn=         0 AccDes= 0.00D+00
 HarFok:  IExCor=  205 AccDes= 0.00D+00 IRadAn=         0 IDoV= 1
 ScaDFX=  1.000000  1.000000  1.000000  1.000000
 FoFCou: FMM=F IPFlag=           0 FMFlag=      100000 FMFlg1=           0
         NFxFlg=           0 DoJE=T BraDBF=F KetDBF=T FulRan=T
         Omega=  0.000000  0.000000  1.000000  0.000000  0.000000 ICntrl=     500 IOpCl=  0
         NMat0=    1 NMatS0=    1 NMatT0=    0 NMatD0=    1 NMtDS0=    0 NMtDT0=    0
         I1Cent=           4 NGrid=           0.
 Petite list used in FoFCou.
 Initial guess orbital symmetries:
       Occupied  (A) (A) (A) (A) (A) (A) (A) (A) (A) (A) (A) (A)
                 (A)
       Virtual   (A) (A) (A) (A) (A) (A) (A) (A) (A) (A) (A) (A)
                 (A) (A) (A) (A) (A) (A) (A) (A) (A) (A) (A) (A)
                 (A) (A) (A) (A) (A) (A) (A) (A) (A) (A) (A) (A)
                 (A) (A) (A) (A) (A) (A) (A) (A) (A) (A) (A) (A)
                 (A) (A) (A) (A) (A) (A) (A) (A) (A) (A) (A) (A)
                 (A) (A) (A) (A) (A) (A) (A) (A) (A) (A) (A) (A)
                 (A) (A) (A) (A) (A) (A) (A) (A) (A)
 The electronic state of the initial guess is 1-A.
 Requested convergence on RMS density matrix=1.00D-08 within 128 cycles.
 Requested convergence on MAX density matrix=1.00D-06.
 Requested convergence on             energy=1.00D-06.
 No special actions if energy rises.
 Keep R1 ints in memory in canonical form, NReq=16900733.
 SCF Done:  E(RHF) =  -453.611515119     A.U. after   15 cycles
             Convg  =    0.5148D-08             -V/T =  2.0017

 **********************************************************************

            Population analysis using the SCF density.

 **********************************************************************

 Orbital symmetries:
       Occupied  (A) (A) (A) (A) (A) (A) (A) (A) (A) (A) (A) (A)
                 (A)
       Virtual   (A) (A) (A) (A) (A) (A) (A) (A) (A) (A) (A) (A)
                 (A) (A) (A) (A) (A) (A) (A) (A) (A) (A) (A) (A)
                 (A) (A) (A) (A) (A) (A) (A) (A) (A) (A) (A) (A)
                 (A) (A) (A) (A) (A) (A) (A) (A) (A) (A) (A) (A)
                 (A) (A) (A) (A) (A) (A) (A) (A) (A) (A) (A) (A)
                 (A) (A) (A) (A) (A) (A) (A) (A) (A) (A) (A) (A)
                 (A) (A) (A) (A) (A) (A) (A) (A) (A)
 The electronic state is 1-A.
 Alpha  occ. eigenvalues --  -92.00291 -15.59880  -8.99859  -6.67994  -6.67911
 Alpha  occ. eigenvalues --   -6.67798  -1.08007  -0.93036  -0.62556  -0.55110
 Alpha  occ. eigenvalues --   -0.46019  -0.39531  -0.38344
 Alpha virt. eigenvalues --    0.04064   0.07368   0.09954   0.10132   0.13289
 Alpha virt. eigenvalues --    0.15895   0.16486   0.19874   0.21583   0.22070
 Alpha virt. eigenvalues --    0.30894   0.32649   0.41287   0.43814   0.44591
 Alpha virt. eigenvalues --    0.51249   0.56805   0.56887   0.58542   0.59645
 Alpha virt. eigenvalues --    0.68282   0.79645   0.88742   0.91691   0.98731
 Alpha virt. eigenvalues --    1.03451   1.03859   1.10642   1.28126   1.32026
 Alpha virt. eigenvalues --    1.42402   1.47591   1.59226   1.61844   1.69236
 Alpha virt. eigenvalues --    1.81500   1.81673   1.87733   1.89632   1.92981
 Alpha virt. eigenvalues --    1.95279   1.98205   2.02800   2.08821   2.14400
 Alpha virt. eigenvalues --    2.21232   2.29980   2.30728   2.33640   2.48209
 Alpha virt. eigenvalues --    2.53475   2.57282   2.60592   2.66027   2.82417
 Alpha virt. eigenvalues --    2.88245   2.90015   3.04111   3.07092   3.19128
 Alpha virt. eigenvalues --    4.04405   4.09573   4.11077   4.27053   4.28671
 Alpha virt. eigenvalues --    4.35677   4.39575   4.64749   4.84869   5.26805
 Alpha virt. eigenvalues --    5.34935   5.46265   5.56215   5.70120   5.91283
 Alpha virt. eigenvalues --    8.55765  18.35957  18.40746  18.60013  36.90973
 Alpha virt. eigenvalues --  192.36533
          Condensed to atoms (all electrons):
              1          2          3          4          5
     1  N    6.879286   0.319988   0.157734  -0.024138   0.345373
     2  H    0.319988   0.438540  -0.045340   0.001128  -0.014574
     3  S    0.157734  -0.045340  15.697822   0.288660  -0.013811
     4  H   -0.024138   0.001128   0.288660   0.587192  -0.000268
     5  H    0.345373  -0.014574  -0.013811  -0.000268   0.367660
 Mulliken atomic charges:
              1
     1  N   -0.678242
     2  H    0.300259
     3  S   -0.085064
     4  H    0.147427
     5  H    0.315620
 Sum of Mulliken atomic charges =   0.00000
 Mulliken charges with hydrogens summed into heavy atoms:
              1
     1  N   -0.062363
     3  S    0.062363
 Sum of Mulliken charges with hydrogens summed into heavy atoms =   0.00000
 Electronic spatial extent (au):  <R**2>=            157.6756
 Charge=              0.0000 electrons
 Dipole moment (field-independent basis, Debye):
    X=             -0.3602    Y=              0.4955    Z=              0.9833  Tot=              1.1585
 Quadrupole moment (field-independent basis, Debye-Ang):
   XX=            -17.5387   YY=            -19.4730   ZZ=            -21.4753
   XY=              0.2072   XZ=              1.2109   YZ=             -0.0205
 Traceless Quadrupole moment (field-independent basis, Debye-Ang):
   XX=              1.9570   YY=              0.0227   ZZ=             -1.9796
   XY=              0.2072   XZ=              1.2109   YZ=             -0.0205
 Octapole moment (field-independent basis, Debye-Ang**2):
  XXX=             -4.1538  YYY=              2.3236  ZZZ=              1.7879  XYY=             -7.9188
  XXY=             -1.1850  XXZ=              2.0502  XZZ=              4.0550  YZZ=             -0.1217
  YYZ=              0.5506  XYZ=             -0.0247
 Hexadecapole moment (field-independent basis, Debye-Ang**3):
 XXXX=           -136.0975 YYYY=            -32.3259 ZZZZ=            -31.8971 XXXY=              7.6269
 XXXZ=              1.8074 YYYX=             -2.1033 YYYZ=              0.0178 ZZZX=              2.7389
 ZZZY=             -0.0725 XXYY=            -23.9412 XXZZ=            -35.1387 YYZZ=            -12.4825
 XXYZ=             -0.1863 YYXZ=              0.3600 ZZXY=              0.4899
 N-N= 4.988569478591D+01 E-N=-1.177724004865D+03  KE= 4.528563102719D+02
 Calling FoFJK, ICntrl=      2127 FMM=F ISym2X=0 I1Cent= 0 IOpClX= 0 NMat=1 NMatS=1 NMatT=0.
 ***** Axes restored to original set *****
 -------------------------------------------------------------------
 Center     Atomic                   Forces (Hartrees/Bohr)
 Number     Number              X              Y              Z
 -------------------------------------------------------------------
      1        7           0.105029950   -0.086701115    0.106502310
      2        1          -0.097555796   -0.002503743   -0.097385095
      3       16          -0.007109885    0.092060651   -0.011766230
      4        1          -0.000986056    0.004814183   -0.000082243
      5        1           0.000621787   -0.007669975    0.002731257
 -------------------------------------------------------------------
 Cartesian Forces:  Max     0.106502310 RMS     0.061996432

 GradGradGradGradGradGradGradGradGradGradGradGradGradGradGradGradGradGrad
 Berny optimization.
 Internal  Forces:  Max     0.136589313 RMS     0.054786297
 Search for a local minimum.
 Step number   1 out of a maximum of   20
 All quantities printed in internal units (Hartrees-Bohrs-Radians)
 Mixed Optimization -- RFO/linear search
 Second derivative matrix not updated -- first step.
 The second derivative matrix:
                          R1        R2        R3        R4        A1
           R1           0.17171
           R2           0.00000   0.13053
           R3           0.00000   0.00000   0.47688
           R4           0.00000   0.00000   0.00000   0.27232
           A1           0.00000   0.00000   0.00000   0.00000   0.16000
           A2           0.00000   0.00000   0.00000   0.00000   0.00000
           A3           0.00000   0.00000   0.00000   0.00000   0.00000
           A4           0.00000   0.00000   0.00000   0.00000   0.00000
           D1           0.00000   0.00000   0.00000   0.00000   0.00000
           D2           0.00000   0.00000   0.00000   0.00000   0.00000
                          A2        A3        A4        D1        D2
           A2           0.16000
           A3           0.00000   0.16000
           A4           0.00000   0.00000   0.16000
           D1           0.00000   0.00000   0.00000   0.00230
           D2           0.00000   0.00000   0.00000   0.00000   0.00230
     Eigenvalues ---    0.00230   0.00230   0.13053   0.16000   0.16000
     Eigenvalues ---    0.16000   0.17171   0.27232   0.476881000.00000
 RFO step:  Lambda=-1.11749253D-01 EMin= 2.30000000D-03
 Linear search not attempted -- first point.
 Maximum step size (   0.300) exceeded in Quadratic search.
    -- Step size scaled by   0.464
 Iteration  1 RMS(Cart)=  0.08793069 RMS(Int)=  0.00817463
 Iteration  2 RMS(Cart)=  0.00784548 RMS(Int)=  0.00002349
 Iteration  3 RMS(Cart)=  0.00002717 RMS(Int)=  0.00000864
 Iteration  4 RMS(Cart)=  0.00000000 RMS(Int)=  0.00000864
 Variable       Old X    -DE/DX   Delta X   Delta X   Delta X     New X
                                 (Linear)    (Quad)   (Total)
    R1        2.51348  -0.13659   0.00000  -0.22343  -0.22343   2.29005
    R2        3.89035  -0.09687   0.00000  -0.18540  -0.18540   3.70494
    R3        1.88973  -0.00679   0.00000  -0.00535  -0.00535   1.88438
    R4        2.51348  -0.00011   0.00000  -0.00013  -0.00013   2.51335
    A1        1.72519   0.03407   0.00000   0.05814   0.05812   1.78332
    A2        2.27900  -0.01299   0.00000  -0.02216  -0.02218   2.25682
    A3        2.27900  -0.02108   0.00000  -0.03598  -0.03599   2.24300
    A4        1.72519  -0.01220   0.00000  -0.02082  -0.02082   1.70437
    D1        1.57100  -0.00027   0.00000  -0.00108  -0.00108   1.56992
    D2       -1.57060   0.00214   0.00000   0.00871   0.00871  -1.56189
         Item               Value     Threshold  Converged?
 Maximum Force            0.136589     0.000450     NO 
 RMS     Force            0.054786     0.000300     NO 
 Maximum Displacement     0.125641     0.001800     NO 
 RMS     Displacement     0.092183     0.001200     NO 
 Predicted change in Energy=-4.483161D-02
 GradGradGradGradGradGradGradGradGradGradGradGradGradGradGradGradGradGrad

                          Input orientation:                          
 ---------------------------------------------------------------------
 Center     Atomic      Atomic             Coordinates (Angstroms)
 Number     Number       Type             X           Y           Z
 ---------------------------------------------------------------------
      1          7           0        0.027845    0.985047   -0.019403
      2          1           0        0.867256    1.213516    0.824251
      3         16           0        0.012410   -0.974879   -0.067292
      4          1           0       -0.920438   -1.167402    0.860958
      5          1           0       -0.524200    1.623526   -0.550382
 ---------------------------------------------------------------------
                    Distance matrix (angstroms):
                    1          2          3          4          5
     1  N    0.000000
     2  H    1.211842   0.000000
     3  S    1.960572   2.512904   0.000000
     4  H    2.511437   2.977578   1.330008   0.000000
     5  H    0.997170   1.998468   2.696856   3.152485   0.000000
 Stoichiometry    H3NS
 Framework group  C1[X(H3NS)]
 Deg. of freedom     9
 Full point group                 C1      NOp   1
 Largest Abelian subgroup         C1      NOp   1
 Largest concise Abelian subgroup C1      NOp   1
                         Standard orientation:                         
 ---------------------------------------------------------------------
 Center     Atomic      Atomic             Coordinates (Angstroms)
 Number     Number       Type             X           Y           Z
 ---------------------------------------------------------------------
      1          7           0       -1.255679   -0.033124    0.008396
      2          1           0       -1.527297    1.147164    0.049714
      3         16           0        0.702455   -0.003829   -0.084865
      4          1           0        0.942511   -0.031568    1.223005
      5          1           0       -1.864740   -0.822471    0.026352
 ---------------------------------------------------------------------
 Rotational constants (GHZ):    136.2810584     10.9395187     10.8608220
 Standard basis: 6-311+G(2df,p) (5D, 7F)
 There are    94 symmetry adapted basis functions of A   symmetry.
 Integral buffers will be    131072 words long.
 Raffenetti 1 integral format.
 Two-electron integral symmetry is turned on.
    94 basis functions,   142 primitive gaussians,   104 cartesian basis functions
    13 alpha electrons       13 beta electrons
       nuclear repulsion energy        51.9615173378 Hartrees.
 NAtoms=    5 NActive=    5 NUniq=    5 SFac= 7.50D-01 NAtFMM=   80 NAOKFM=F Big=F
 One-electron integrals computed using PRISM.
 NBasis=    94 RedAO= T  NBF=    94
 NBsUse=    94 1.00D-06 NBFU=    94
 Initial guess read from the read-write file.
 B after Tr=     0.000000    0.000000    0.000000
         Rot=    1.000000    0.000000    0.000000    0.000000 Ang=   0.00 deg.
 Initial guess orbital symmetries:
       Occupied  (A) (A) (A) (A) (A) (A) (A) (A) (A) (A) (A) (A)
                 (A)
       Virtual   (A) (A) (A) (A) (A) (A) (A) (A) (A) (A) (A) (A)
                 (A) (A) (A) (A) (A) (A) (A) (A) (A) (A) (A) (A)
                 (A) (A) (A) (A) (A) (A) (A) (A) (A) (A) (A) (A)
                 (A) (A) (A) (A) (A) (A) (A) (A) (A) (A) (A) (A)
                 (A) (A) (A) (A) (A) (A) (A) (A) (A) (A) (A) (A)
                 (A) (A) (A) (A) (A) (A) (A) (A) (A) (A) (A) (A)
                 (A) (A) (A) (A) (A) (A) (A) (A) (A)
 Harris functional with IExCor=  205 diagonalized for initial guess.
 ExpMin= 4.05D-02 ExpMax= 9.34D+04 ExpMxC= 3.17D+03 IAcc=2 IRadAn=         0 AccDes= 0.00D+00
 HarFok:  IExCor=  205 AccDes= 0.00D+00 IRadAn=         0 IDoV= 1
 ScaDFX=  1.000000  1.000000  1.000000  1.000000
 FoFCou: FMM=F IPFlag=           0 FMFlag=      100000 FMFlg1=           0
         NFxFlg=           0 DoJE=T BraDBF=F KetDBF=T FulRan=T
         Omega=  0.000000  0.000000  1.000000  0.000000  0.000000 ICntrl=     500 IOpCl=  0
         NMat0=    1 NMatS0=    1 NMatT0=    0 NMatD0=    1 NMtDS0=    0 NMtDT0=    0
         I1Cent=           4 NGrid=           0.
 Petite list used in FoFCou.
 Requested convergence on RMS density matrix=1.00D-08 within 128 cycles.
 Requested convergence on MAX density matrix=1.00D-06.
 Requested convergence on             energy=1.00D-06.
 No special actions if energy rises.
 Keep R1 ints in memory in canonical form, NReq=16900733.
 SCF Done:  E(RHF) =  -453.661405886     A.U. after   13 cycles
             Convg  =    0.3569D-08             -V/T =  2.0014
 Calling FoFJK, ICntrl=      2127 FMM=F ISym2X=0 I1Cent= 0 IOpClX= 0 NMat=1 NMatS=1 NMatT=0.
 ***** Axes restored to original set *****
 -------------------------------------------------------------------
 Center     Atomic                   Forces (Hartrees/Bohr)
 Number     Number              X              Y              Z
 -------------------------------------------------------------------
      1        7           0.094280194   -0.078957429    0.092342835
      2        1          -0.087462413   -0.004503034   -0.087382268
      3       16          -0.007871832    0.089061283   -0.007554365
      4        1          -0.000414473    0.001670193   -0.000275557
      5        1           0.001468524   -0.007271012    0.002869355
 -------------------------------------------------------------------
 Cartesian Forces:  Max     0.094280194 RMS     0.056019688

 GradGradGradGradGradGradGradGradGradGradGradGradGradGradGradGradGradGrad
 Berny optimization.
 Using GEDIIS/GDIIS optimizer.
 Internal  Forces:  Max     0.122265215 RMS     0.049671646
 Search for a local minimum.
 Step number   2 out of a maximum of   20
 All quantities printed in internal units (Hartrees-Bohrs-Radians)
 Mixed Optimization -- RFO/linear search
 Update second derivatives using D2CorX and points    1    2
 DE= -4.99D-02 DEPred=-4.48D-02 R= 1.11D+00
 SS=  1.41D+00  RLast= 3.00D-01 DXNew= 5.0454D-01 9.0000D-01
 Trust test= 1.11D+00 RLast= 3.00D-01 DXMaxT set to 5.05D-01
 The second derivative matrix:
                          R1        R2        R3        R4        A1
           R1           0.10880
           R2          -0.04741   0.09716
           R3          -0.00762  -0.00469   0.47643
           R4          -0.00020  -0.00011  -0.00001   0.27232
           A1           0.01674   0.01216   0.00183   0.00005   0.15563
           A2          -0.00727  -0.00504  -0.00068  -0.00002   0.00185
           A3          -0.00954  -0.00716  -0.00114  -0.00003   0.00253
           A4           0.01469   0.00493  -0.00095  -0.00007  -0.00272
           D1           0.00018   0.00008   0.00000   0.00000  -0.00004
           D2          -0.00181  -0.00080   0.00003   0.00000   0.00037
                          A2        A3        A4        D1        D2
           A2           0.15924
           A3          -0.00110   0.15855
           A4           0.00055   0.00215   0.17259
           D1           0.00001   0.00003   0.00010   0.00230
           D2          -0.00010  -0.00027  -0.00104  -0.00001   0.00238
 Use linear search instead of GDIIS.
 Linear search step of   0.600 exceeds DXMaxT=   0.505 but not scaled.
 Quartic linear search produced a step of  2.00000.
 Iteration  1 RMS(Cart)=  0.10763239 RMS(Int)=  0.09756631
 Iteration  2 RMS(Cart)=  0.08735483 RMS(Int)=  0.01729609
 Iteration  3 RMS(Cart)=  0.01493270 RMS(Int)=  0.00005249
 Iteration  4 RMS(Cart)=  0.00001404 RMS(Int)=  0.00005076
 Iteration  5 RMS(Cart)=  0.00000000 RMS(Int)=  0.00005076
 Variable       Old X    -DE/DX   Delta X   Delta X   Delta X     New X
                                 (Linear)    (Quad)   (Total)
    R1        2.29005  -0.12227  -0.44686   0.00000  -0.44686   1.84319
    R2        3.70494  -0.09045  -0.37080   0.00000  -0.37080   3.33414
    R3        1.88438  -0.00700  -0.01070   0.00000  -0.01070   1.87368
    R4        2.51335  -0.00014  -0.00026   0.00000  -0.00026   2.51309
    A1        1.78332   0.03110   0.11625   0.00000   0.11616   1.89947
    A2        2.25682  -0.01215  -0.04436   0.00000  -0.04445   2.21236
    A3        2.24300  -0.01897  -0.07198   0.00000  -0.07208   2.17093
    A4        1.70437  -0.00416  -0.04165   0.00000  -0.04165   1.66273
    D1        1.56992  -0.00020  -0.00216   0.00000  -0.00215   1.56776
    D2       -1.56189   0.00151   0.01741   0.00000   0.01741  -1.54448
         Item               Value     Threshold  Converged?
 Maximum Force            0.122265     0.000450     NO 
 RMS     Force            0.049672     0.000300     NO 
 Maximum Displacement     0.258819     0.001800     NO 
 RMS     Displacement     0.187660     0.001200     NO 
 Predicted change in Energy=-8.430490D-02
 GradGradGradGradGradGradGradGradGradGradGradGradGradGradGradGradGradGrad

                          Input orientation:                          
 ---------------------------------------------------------------------
 Center     Atomic      Atomic             Coordinates (Angstroms)
 Number     Number       Type             X           Y           Z
 ---------------------------------------------------------------------
      1          7           0        0.080760    0.901310    0.047139
      2          1           0        0.737301    1.150793    0.723943
      3         16           0        0.042351   -0.857436   -0.088052
      4          1           0       -0.897830   -1.030441    0.836437
      5          1           0       -0.499708    1.515582   -0.471335
 ---------------------------------------------------------------------
                    Distance matrix (angstroms):
                    1          2          3          4          5
     1  N    0.000000
     2  H    0.975372   0.000000
     3  S    1.764353   2.274923   0.000000
     4  H    2.304840   2.728385   1.329869   0.000000
     5  H    0.991509   1.758395   2.464133   2.889810   0.000000
 Stoichiometry    H3NS
 Framework group  C1[X(H3NS)]
 Deg. of freedom     9
 Full point group                 C1      NOp   1
 Largest Abelian subgroup         C1      NOp   1
 Largest concise Abelian subgroup C1      NOp   1
                         Standard orientation:                         
 ---------------------------------------------------------------------
 Center     Atomic      Atomic             Coordinates (Angstroms)
 Number     Number       Type             X           Y           Z
 ---------------------------------------------------------------------
      1          7           0        1.125857    0.004841   -0.000355
      2          1           0        1.437879   -0.151472    0.910446
      3         16           0       -0.636263   -0.081360   -0.021377
      4          1           0       -0.824707    1.211462    0.226923
      5          1           0        1.686045    0.207878   -0.792855
 ---------------------------------------------------------------------
 Rotational constants (GHZ):    156.0305169     13.3792625     13.3167283
 Standard basis: 6-311+G(2df,p) (5D, 7F)
 There are    94 symmetry adapted basis functions of A   symmetry.
 Integral buffers will be    131072 words long.
 Raffenetti 1 integral format.
 Two-electron integral symmetry is turned on.
    94 basis functions,   142 primitive gaussians,   104 cartesian basis functions
    13 alpha electrons       13 beta electrons
       nuclear repulsion energy        56.9352509370 Hartrees.
 NAtoms=    5 NActive=    5 NUniq=    5 SFac= 7.50D-01 NAtFMM=   80 NAOKFM=F Big=F
 One-electron integrals computed using PRISM.
 NBasis=    94 RedAO= T  NBF=    94
 NBsUse=    94 1.00D-06 NBFU=    94
 Initial guess read from the read-write file.
 B after Tr=     0.000000    0.000000    0.000000
         Rot=    1.000000    0.000000    0.000000    0.000000 Ang=   0.00 deg.
 Initial guess orbital symmetries:
       Occupied  (A) (A) (A) (A) (A) (A) (A) (A) (A) (A) (A) (A)
                 (A)
       Virtual   (A) (A) (A) (A) (A) (A) (A) (A) (A) (A) (A) (A)
                 (A) (A) (A) (A) (A) (A) (A) (A) (A) (A) (A) (A)
                 (A) (A) (A) (A) (A) (A) (A) (A) (A) (A) (A) (A)
                 (A) (A) (A) (A) (A) (A) (A) (A) (A) (A) (A) (A)
                 (A) (A) (A) (A) (A) (A) (A) (A) (A) (A) (A) (A)
                 (A) (A) (A) (A) (A) (A) (A) (A) (A) (A) (A) (A)
                 (A) (A) (A) (A) (A) (A) (A) (A) (A)
 Harris functional with IExCor=  205 diagonalized for initial guess.
 ExpMin= 4.05D-02 ExpMax= 9.34D+04 ExpMxC= 3.17D+03 IAcc=2 IRadAn=         0 AccDes= 0.00D+00
 HarFok:  IExCor=  205 AccDes= 0.00D+00 IRadAn=         0 IDoV= 1
 ScaDFX=  1.000000  1.000000  1.000000  1.000000
 FoFCou: FMM=F IPFlag=           0 FMFlag=      100000 FMFlg1=           0
         NFxFlg=           0 DoJE=T BraDBF=F KetDBF=T FulRan=T
         Omega=  0.000000  0.000000  1.000000  0.000000  0.000000 ICntrl=     500 IOpCl=  0
         NMat0=    1 NMatS0=    1 NMatT0=    0 NMatD0=    1 NMtDS0=    0 NMtDT0=    0
         I1Cent=           4 NGrid=           0.
 Petite list used in FoFCou.
 Requested convergence on RMS density matrix=1.00D-08 within 128 cycles.
 Requested convergence on MAX density matrix=1.00D-06.
 Requested convergence on             energy=1.00D-06.
 No special actions if energy rises.
 Keep R1 ints in memory in canonical form, NReq=16900733.
 SCF Done:  E(RHF) =  -453.725016738     A.U. after   14 cycles
             Convg  =    0.3357D-08             -V/T =  2.0003
 Calling FoFJK, ICntrl=      2127 FMM=F ISym2X=0 I1Cent= 0 IOpClX= 0 NMat=1 NMatS=1 NMatT=0.
 ***** Axes restored to original set *****
 -------------------------------------------------------------------
 Center     Atomic                   Forces (Hartrees/Bohr)
 Number     Number              X              Y              Z
 -------------------------------------------------------------------
      1        7           0.003831139   -0.063421537   -0.008901808
      2        1           0.004701768    0.022170609    0.006015122
      3       16          -0.010859466    0.052966194    0.000797401
      4        1          -0.000364242   -0.008305811   -0.000657846
      5        1           0.002690801   -0.003409454    0.002747131
 -------------------------------------------------------------------
 Cartesian Forces:  Max     0.063421537 RMS     0.022636225

 GradGradGradGradGradGradGradGradGradGradGradGradGradGradGradGradGradGrad
 Berny optimization.
 Using GEDIIS/GDIIS optimizer.
 Internal  Forces:  Max     0.044284826 RMS     0.018619368
 Search for a local minimum.
 Step number   3 out of a maximum of   20
 All quantities printed in internal units (Hartrees-Bohrs-Radians)
 Mixed Optimization -- RFO/linear search
 Update second derivatives using D2CorX and points    2    3
 The second derivative matrix:
                          R1        R2        R3        R4        A1
           R1           0.29521
           R2           0.01163   0.11525
           R3          -0.00384  -0.00334   0.47646
           R4           0.00163   0.00053   0.00002   0.27234
           A1           0.01376   0.01209   0.00154  -0.00007   0.15442
           A2          -0.00919  -0.00596  -0.00064   0.00000   0.00234
           A3          -0.00462  -0.00616  -0.00090   0.00007   0.00326
           A4           0.03315   0.00866  -0.00002   0.00031   0.00003
           D1           0.00080   0.00027   0.00001   0.00001  -0.00004
           D2          -0.00237  -0.00079  -0.00003  -0.00002   0.00011
                          A2        A3        A4        D1        D2
           A2           0.15910
           A3          -0.00144   0.15817
           A4          -0.00075   0.00069   0.16702
           D1           0.00000   0.00004   0.00015   0.00230
           D2           0.00000  -0.00011  -0.00044  -0.00001   0.00233
 Use linear search instead of GDIIS.
     Eigenvalues ---    0.00230   0.00239   0.10879   0.15363   0.16000
     Eigenvalues ---    0.16044   0.27225   0.30629   0.476591000.00000
 RFO step:  Lambda=-1.99187019D-02 EMin= 2.30034070D-03
 Quartic linear search produced a step of  0.09197.
 Iteration  1 RMS(Cart)=  0.09746258 RMS(Int)=  0.03791319
 Iteration  2 RMS(Cart)=  0.04052861 RMS(Int)=  0.00012455
 Iteration  3 RMS(Cart)=  0.00008780 RMS(Int)=  0.00008143
 Iteration  4 RMS(Cart)=  0.00000002 RMS(Int)=  0.00008143
 Variable       Old X    -DE/DX   Delta X   Delta X   Delta X     New X
                                 (Linear)    (Quad)   (Total)
    R1        1.84319   0.01301  -0.04110   0.09505   0.05395   1.89714
    R2        3.33414  -0.04428  -0.03410  -0.28034  -0.31445   3.01970
    R3        1.87368  -0.00512  -0.00098  -0.01136  -0.01234   1.86134
    R4        2.51309   0.00088  -0.00002   0.00324   0.00322   2.51631
    A1        1.89947   0.02415   0.01068   0.13705   0.14758   2.04706
    A2        2.21236  -0.01181  -0.00409  -0.06724  -0.07147   2.14089
    A3        2.17093  -0.01234  -0.00663  -0.06891  -0.07569   2.09524
    A4        1.66273   0.02084  -0.00383   0.12393   0.12010   1.78283
    D1        1.56776   0.00028  -0.00020   0.01563   0.01544   1.58320
    D2       -1.54448   0.00008   0.00160  -0.01509  -0.01349  -1.55797
         Item               Value     Threshold  Converged?
 Maximum Force            0.044285     0.000450     NO 
 RMS     Force            0.018619     0.000300     NO 
 Maximum Displacement     0.219213     0.001800     NO 
 RMS     Displacement     0.106616     0.001200     NO 
 Predicted change in Energy=-1.370189D-02
 GradGradGradGradGradGradGradGradGradGradGradGradGradGradGradGradGradGrad

                          Input orientation:                          
 ---------------------------------------------------------------------
 Center     Atomic      Atomic             Coordinates (Angstroms)
 Number     Number       Type             X           Y           Z
 ---------------------------------------------------------------------
      1          7           0        0.096398    0.846243    0.066606
      2          1           0        0.769718    1.206784    0.718151
      3         16           0        0.005814   -0.741434   -0.090034
      4          1           0       -0.914662   -1.060513    0.817707
      5          1           0       -0.494394    1.428728   -0.464297
 ---------------------------------------------------------------------
                    Distance matrix (angstroms):
                    1          2          3          4          5
     1  N    0.000000
     2  H    1.003923   0.000000
     3  S    1.597955   2.243271   0.000000
     4  H    2.285194   2.826250   1.331571   0.000000
     5  H    0.984978   1.745113   2.258292   2.831339   0.000000
 Stoichiometry    H3NS
 Framework group  C1[X(H3NS)]
 Deg. of freedom     9
 Full point group                 C1      NOp   1
 Largest Abelian subgroup         C1      NOp   1
 Largest concise Abelian subgroup C1      NOp   1
                         Standard orientation:                         
 ---------------------------------------------------------------------
 Center     Atomic      Atomic             Coordinates (Angstroms)
 Number     Number       Type             X           Y           Z
 ---------------------------------------------------------------------
      1          7           0        1.019954    0.019390    0.005464
      2          1           0        1.481623   -0.349469    0.817047
      3         16           0       -0.574246   -0.080521   -0.039305
      4          1           0       -0.942965    1.071537    0.517374
      5          1           0        1.509596    0.430538   -0.743795
 ---------------------------------------------------------------------
 Rotational constants (GHZ):    159.5437982     15.7968656     15.7448179
 Standard basis: 6-311+G(2df,p) (5D, 7F)
 There are    94 symmetry adapted basis functions of A   symmetry.
 Integral buffers will be    131072 words long.
 Raffenetti 1 integral format.
 Two-electron integral symmetry is turned on.
    94 basis functions,   142 primitive gaussians,   104 cartesian basis functions
    13 alpha electrons       13 beta electrons
       nuclear repulsion energy        60.7207379248 Hartrees.
 NAtoms=    5 NActive=    5 NUniq=    5 SFac= 7.50D-01 NAtFMM=   80 NAOKFM=F Big=F
 One-electron integrals computed using PRISM.
 NBasis=    94 RedAO= T  NBF=    94
 NBsUse=    94 1.00D-06 NBFU=    94
 Initial guess read from the read-write file.
 B after Tr=     0.000000    0.000000    0.000000
         Rot=    1.000000    0.000000    0.000000    0.000000 Ang=   0.00 deg.
 Initial guess orbital symmetries:
       Occupied  (A) (A) (A) (A) (A) (A) (A) (A) (A) (A) (A) (A)
                 (A)
       Virtual   (A) (A) (A) (A) (A) (A) (A) (A) (A) (A) (A) (A)
                 (A) (A) (A) (A) (A) (A) (A) (A) (A) (A) (A) (A)
                 (A) (A) (A) (A) (A) (A) (A) (A) (A) (A) (A) (A)
                 (A) (A) (A) (A) (A) (A) (A) (A) (A) (A) (A) (A)
                 (A) (A) (A) (A) (A) (A) (A) (A) (A) (A) (A) (A)
                 (A) (A) (A) (A) (A) (A) (A) (A) (A) (A) (A) (A)
                 (A) (A) (A) (A) (A) (A) (A) (A) (A)
 Harris functional with IExCor=  205 diagonalized for initial guess.
 ExpMin= 4.05D-02 ExpMax= 9.34D+04 ExpMxC= 3.17D+03 IAcc=2 IRadAn=         0 AccDes= 0.00D+00
 HarFok:  IExCor=  205 AccDes= 0.00D+00 IRadAn=         0 IDoV= 1
 ScaDFX=  1.000000  1.000000  1.000000  1.000000
 FoFCou: FMM=F IPFlag=           0 FMFlag=      100000 FMFlg1=           0
         NFxFlg=           0 DoJE=T BraDBF=F KetDBF=T FulRan=T
         Omega=  0.000000  0.000000  1.000000  0.000000  0.000000 ICntrl=     500 IOpCl=  0
         NMat0=    1 NMatS0=    1 NMatT0=    0 NMatD0=    1 NMtDS0=    0 NMtDT0=    0
         I1Cent=           4 NGrid=           0.
 Petite list used in FoFCou.
 Requested convergence on RMS density matrix=1.00D-08 within 128 cycles.
 Requested convergence on MAX density matrix=1.00D-06.
 Requested convergence on             energy=1.00D-06.
 No special actions if energy rises.
 Keep R1 ints in memory in canonical form, NReq=16900733.
 SCF Done:  E(RHF) =  -453.731960911     A.U. after   13 cycles
             Convg  =    0.4785D-08             -V/T =  1.9998
 Calling FoFJK, ICntrl=      2127 FMM=F ISym2X=0 I1Cent= 0 IOpClX= 0 NMat=1 NMatS=1 NMatT=0.
 ***** Axes restored to original set *****
 -------------------------------------------------------------------
 Center     Atomic                   Forces (Hartrees/Bohr)
 Number     Number              X              Y              Z
 -------------------------------------------------------------------
      1        7           0.018097226    0.031909423    0.015210614
      2        1          -0.013337529    0.005733546   -0.011450565
      3       16          -0.002551939   -0.044365807   -0.008034254
      4        1          -0.002766032   -0.002224143    0.002752832
      5        1           0.000558275    0.008946980    0.001521373
 -------------------------------------------------------------------
 Cartesian Forces:  Max     0.044365807 RMS     0.016454380

 GradGradGradGradGradGradGradGradGradGradGradGradGradGradGradGradGradGrad
 Berny optimization.
 Using GEDIIS/GDIIS optimizer.
 Internal  Forces:  Max     0.047109459 RMS     0.016514073
 Search for a local minimum.
 Step number   4 out of a maximum of   20
 All quantities printed in internal units (Hartrees-Bohrs-Radians)
 Mixed Optimization -- RFO/linear search
 Update second derivatives using D2CorX and points    3    4
 DE= -6.94D-03 DEPred=-1.37D-02 R= 5.07D-01
 SS=  1.41D+00  RLast= 3.87D-01 DXNew= 8.4853D-01 1.1596D+00
 Trust test= 5.07D-01 RLast= 3.87D-01 DXMaxT set to 8.49D-01
 The second derivative matrix:
                          R1        R2        R3        R4        A1
           R1           0.29488
           R2          -0.02342   0.29191
           R3          -0.00577   0.01191   0.47761
           R4          -0.00190   0.01082   0.00113   0.27263
           A1           0.00362   0.00999   0.00293  -0.00235   0.13916
           A2           0.00182  -0.02481  -0.00335   0.00038   0.01308
           A3          -0.00556   0.01490   0.00044   0.00196   0.00770
           A4           0.02577  -0.00240   0.00045  -0.00229  -0.01369
           D1           0.00183  -0.00317  -0.00034  -0.00012   0.00050
           D2          -0.00290   0.00088   0.00014   0.00004  -0.00020
                          A2        A3        A4        D1        D2
           A2           0.15387
           A3          -0.00692   0.15924
           A4           0.00996   0.00362   0.15516
           D1           0.00003  -0.00053   0.00082   0.00235
           D2           0.00002   0.00018  -0.00081  -0.00003   0.00234
 Use linear search instead of GDIIS.
     Eigenvalues ---    0.00230   0.00230   0.11697   0.15916   0.15992
     Eigenvalues ---    0.26683   0.27917   0.32368   0.478811000.00000
 RFO step:  Lambda=-5.33281787D-03 EMin= 2.30032722D-03
 Quartic linear search produced a step of -0.28873.
 Iteration  1 RMS(Cart)=  0.07991138 RMS(Int)=  0.00254452
 Iteration  2 RMS(Cart)=  0.00246319 RMS(Int)=  0.00062748
 Iteration  3 RMS(Cart)=  0.00000493 RMS(Int)=  0.00062745
 Iteration  4 RMS(Cart)=  0.00000000 RMS(Int)=  0.00062745
 Variable       Old X    -DE/DX   Delta X   Delta X   Delta X     New X
                                 (Linear)    (Quad)   (Total)
    R1        1.89714  -0.01432  -0.01558  -0.02370  -0.03928   1.85786
    R2        3.01970   0.04711   0.09079   0.03647   0.12726   3.14695
    R3        1.86134   0.00414   0.00356  -0.00025   0.00331   1.86465
    R4        2.51631   0.00432  -0.00093   0.01283   0.01190   2.52821
    A1        2.04706   0.00976  -0.04261   0.13334   0.08958   2.13664
    A2        2.14089  -0.01240   0.02064  -0.09759  -0.07810   2.06279
    A3        2.09524   0.00265   0.02185  -0.03578  -0.01507   2.08017
    A4        1.78283   0.00306  -0.03468   0.08850   0.05383   1.83665
    D1        1.58320  -0.00107  -0.00446  -0.04975  -0.05412   1.52908
    D2       -1.55797   0.00069   0.00389   0.03422   0.03803  -1.51994
         Item               Value     Threshold  Converged?
 Maximum Force            0.047109     0.000450     NO 
 RMS     Force            0.016514     0.000300     NO 
 Maximum Displacement     0.137412     0.001800     NO 
 RMS     Displacement     0.080568     0.001200     NO 
 Predicted change in Energy=-4.591863D-03
 GradGradGradGradGradGradGradGradGradGradGradGradGradGradGradGradGradGrad

                          Input orientation:                          
 ---------------------------------------------------------------------
 Center     Atomic      Atomic             Coordinates (Angstroms)
 Number     Number       Type             X           Y           Z
 ---------------------------------------------------------------------
      1          7           0        0.135831    0.865059    0.061650
      2          1           0        0.762968    1.278687    0.695816
      3         16           0       -0.024758   -0.785807   -0.086895
      4          1           0       -0.940946   -1.133228    0.824036
      5          1           0       -0.470221    1.455097   -0.446476
 ---------------------------------------------------------------------
                    Distance matrix (angstroms):
                    1          2          3          4          5
     1  N    0.000000
     2  H    0.983136   0.000000
     3  S    1.665296   2.344202   0.000000
     4  H    2.394542   2.955858   1.337870   0.000000
     5  H    0.986729   1.690179   2.312874   2.921508   0.000000
 Stoichiometry    H3NS
 Framework group  C1[X(H3NS)]
 Deg. of freedom     9
 Full point group                 C1      NOp   1
 Largest Abelian subgroup         C1      NOp   1
 Largest concise Abelian subgroup C1      NOp   1
                         Standard orientation:                         
 ---------------------------------------------------------------------
 Center     Atomic      Atomic             Coordinates (Angstroms)
 Number     Number       Type             X           Y           Z
 ---------------------------------------------------------------------
      1          7           0       -1.064814    0.012566   -0.002744
      2          1           0       -1.588345    0.014980   -0.834890
      3         16           0        0.597339   -0.089310    0.006058
      4          1           0        1.027444    1.173744   -0.091916
      5          1           0       -1.542829    0.152269    0.849090
 ---------------------------------------------------------------------
 Rotational constants (GHZ):    165.8484670     14.5782385     14.5069676
 Standard basis: 6-311+G(2df,p) (5D, 7F)
 There are    94 symmetry adapted basis functions of A   symmetry.
 Integral buffers will be    131072 words long.
 Raffenetti 1 integral format.
 Two-electron integral symmetry is turned on.
    94 basis functions,   142 primitive gaussians,   104 cartesian basis functions
    13 alpha electrons       13 beta electrons
       nuclear repulsion energy        58.9331736129 Hartrees.
 NAtoms=    5 NActive=    5 NUniq=    5 SFac= 7.50D-01 NAtFMM=   80 NAOKFM=F Big=F
 One-electron integrals computed using PRISM.
 NBasis=    94 RedAO= T  NBF=    94
 NBsUse=    94 1.00D-06 NBFU=    94
 Initial guess read from the read-write file.
 B after Tr=     0.000000    0.000000    0.000000
         Rot=    1.000000    0.000000    0.000000    0.000000 Ang=   0.00 deg.
 Initial guess orbital symmetries:
       Occupied  (A) (A) (A) (A) (A) (A) (A) (A) (A) (A) (A) (A)
                 (A)
       Virtual   (A) (A) (A) (A) (A) (A) (A) (A) (A) (A) (A) (A)
                 (A) (A) (A) (A) (A) (A) (A) (A) (A) (A) (A) (A)
                 (A) (A) (A) (A) (A) (A) (A) (A) (A) (A) (A) (A)
                 (A) (A) (A) (A) (A) (A) (A) (A) (A) (A) (A) (A)
                 (A) (A) (A) (A) (A) (A) (A) (A) (A) (A) (A) (A)
                 (A) (A) (A) (A) (A) (A) (A) (A) (A) (A) (A) (A)
                 (A) (A) (A) (A) (A) (A) (A) (A) (A)
 Harris functional with IExCor=  205 diagonalized for initial guess.
 ExpMin= 4.05D-02 ExpMax= 9.34D+04 ExpMxC= 3.17D+03 IAcc=2 IRadAn=         0 AccDes= 0.00D+00
 HarFok:  IExCor=  205 AccDes= 0.00D+00 IRadAn=         0 IDoV= 1
 ScaDFX=  1.000000  1.000000  1.000000  1.000000
 FoFCou: FMM=F IPFlag=           0 FMFlag=      100000 FMFlg1=           0
         NFxFlg=           0 DoJE=T BraDBF=F KetDBF=T FulRan=T
         Omega=  0.000000  0.000000  1.000000  0.000000  0.000000 ICntrl=     500 IOpCl=  0
         NMat0=    1 NMatS0=    1 NMatT0=    0 NMatD0=    1 NMtDS0=    0 NMtDT0=    0
         I1Cent=           4 NGrid=           0.
 Petite list used in FoFCou.
 Requested convergence on RMS density matrix=1.00D-08 within 128 cycles.
 Requested convergence on MAX density matrix=1.00D-06.
 Requested convergence on             energy=1.00D-06.
 No special actions if energy rises.
 Keep R1 ints in memory in canonical form, NReq=16900733.
 SCF Done:  E(RHF) =  -453.734650688     A.U. after   13 cycles
             Convg  =    0.5282D-08             -V/T =  2.0001
 Calling FoFJK, ICntrl=      2127 FMM=F ISym2X=0 I1Cent= 0 IOpClX= 0 NMat=1 NMatS=1 NMatT=0.
 ***** Axes restored to original set *****
 -------------------------------------------------------------------
 Center     Atomic                   Forces (Hartrees/Bohr)
 Number     Number              X              Y              Z
 -------------------------------------------------------------------
      1        7          -0.007159065   -0.011837739   -0.005702890
      2        1           0.003898779   -0.000198018    0.006674980
      3       16           0.006312335    0.002778018   -0.002944868
      4        1          -0.000501159    0.006651156    0.002155254
      5        1          -0.002550891    0.002606583   -0.000182475
 -------------------------------------------------------------------
 Cartesian Forces:  Max     0.011837739 RMS     0.005179487

 GradGradGradGradGradGradGradGradGradGradGradGradGradGradGradGradGradGrad
 Berny optimization.
 Using GEDIIS/GDIIS optimizer.
 Internal  Forces:  Max     0.017711340 RMS     0.007183168
 Search for a local minimum.
 Step number   5 out of a maximum of   20
 All quantities printed in internal units (Hartrees-Bohrs-Radians)
 Mixed Optimization -- RFO/linear search
 Update second derivatives using D2CorX and points    3    4    5
 DE= -2.69D-03 DEPred=-4.59D-03 R= 5.86D-01
 SS=  1.41D+00  RLast= 1.99D-01 DXNew= 1.4270D+00 5.9634D-01
 Trust test= 5.86D-01 RLast= 1.99D-01 DXMaxT set to 8.49D-01
 The second derivative matrix:
                          R1        R2        R3        R4        A1
           R1           0.30992
           R2          -0.05660   0.36643
           R3          -0.00207   0.00400   0.47828
           R4          -0.00362   0.01351  -0.00029   0.27173
           A1          -0.00911   0.03021  -0.00601  -0.00557   0.13395
           A2           0.00952  -0.03626   0.00302   0.00381   0.02342
           A3          -0.00175   0.00906   0.00298   0.00229   0.00551
           A4          -0.00330   0.05595  -0.00967   0.00096   0.01776
           D1          -0.00188   0.00494  -0.00107   0.00086   0.00683
           D2           0.00021  -0.00595   0.00075  -0.00078  -0.00540
                          A2        A3        A4        D1        D2
           A2           0.14149
           A3          -0.00714   0.16094
           A4          -0.00732  -0.00777   0.22435
           D1          -0.00437  -0.00232   0.00950   0.00315
           D2           0.00364   0.00164  -0.00798  -0.00069   0.00288
 Use linear search instead of GDIIS.
     Eigenvalues ---    0.00230   0.00276   0.10404   0.15928   0.20604
     Eigenvalues ---    0.27127   0.28478   0.42441   0.478891000.00000
 RFO step:  Lambda=-1.90212895D-03 EMin= 2.29661901D-03
 Quartic linear search produced a step of -0.26893.
 Iteration  1 RMS(Cart)=  0.09716873 RMS(Int)=  0.05403178
 Iteration  2 RMS(Cart)=  0.05019890 RMS(Int)=  0.02699222
 Iteration  3 RMS(Cart)=  0.00402465 RMS(Int)=  0.02659161
 Iteration  4 RMS(Cart)=  0.00037605 RMS(Int)=  0.02658968
 Iteration  5 RMS(Cart)=  0.00003282 RMS(Int)=  0.02658967
 Iteration  6 RMS(Cart)=  0.00000292 RMS(Int)=  0.02658967
 Iteration  7 RMS(Cart)=  0.00000026 RMS(Int)=  0.02658967
 Variable       Old X    -DE/DX   Delta X   Delta X   Delta X     New X
                                 (Linear)    (Quad)   (Total)
    R1        1.85786   0.00671   0.01056   0.00758   0.01814   1.87600
    R2        3.14695  -0.00984  -0.03422   0.02334  -0.01088   3.13607
    R3        1.86465   0.00322  -0.00089   0.00546   0.00457   1.86922
    R4        2.52821   0.00008  -0.00320   0.00602   0.00282   2.53103
    A1        2.13664  -0.00483  -0.02409   0.00775  -0.05649   2.08015
    A2        2.06279   0.00139   0.02100  -0.04625  -0.07505   1.98774
    A3        2.08017   0.00299   0.00405  -0.01042  -0.04703   2.03314
    A4        1.83665  -0.01771  -0.01448  -0.03869  -0.05316   1.78349
    D1        1.52908  -0.00308   0.01456  -0.34618  -0.30590   1.22318
    D2       -1.51994   0.00254  -0.01023   0.28663   0.25067  -1.26927
         Item               Value     Threshold  Converged?
 Maximum Force            0.017711     0.000450     NO 
 RMS     Force            0.007183     0.000300     NO 
 Maximum Displacement     0.238792     0.001800     NO 
 RMS     Displacement     0.140185     0.001200     NO 
 Predicted change in Energy=-9.041180D-04
 GradGradGradGradGradGradGradGradGradGradGradGradGradGradGradGradGradGrad

                          Input orientation:                          
 ---------------------------------------------------------------------
 Center     Atomic      Atomic             Coordinates (Angstroms)
 Number     Number       Type             X           Y           Z
 ---------------------------------------------------------------------
      1          7           0        0.218890    0.844801   -0.036691
      2          1           0        0.684017    1.230188    0.751127
      3         16           0       -0.006029   -0.797298   -0.120304
      4          1           0       -0.918261   -1.006865    0.837719
      5          1           0       -0.515743    1.408981   -0.383719
 ---------------------------------------------------------------------
                    Distance matrix (angstroms):
                    1          2          3          4          5
     1  N    0.000000
     2  H    0.992736   0.000000
     3  S    1.659539   2.312197   0.000000
     4  H    2.342300   2.753035   1.339363   0.000000
     5  H    0.989148   1.661104   2.279663   2.736831   0.000000
 Stoichiometry    H3NS
 Framework group  C1[X(H3NS)]
 Deg. of freedom     9
 Full point group                 C1      NOp   1
 Largest Abelian subgroup         C1      NOp   1
 Largest concise Abelian subgroup C1      NOp   1
                         Standard orientation:                         
 ---------------------------------------------------------------------
 Center     Atomic      Atomic             Coordinates (Angstroms)
 Number     Number       Type             X           Y           Z
 ---------------------------------------------------------------------
      1          7           0       -1.061466   -0.053000   -0.004898
      2          1           0       -1.539761    0.297036   -0.801286
      3         16           0        0.597816   -0.082147   -0.005522
      4          1           0        0.903488    1.219704    0.069587
      5          1           0       -1.498521    0.168623    0.854334
 ---------------------------------------------------------------------
 Rotational constants (GHZ):    157.9117164     14.8724544     14.6894406
 Standard basis: 6-311+G(2df,p) (5D, 7F)
 There are    94 symmetry adapted basis functions of A   symmetry.
 Integral buffers will be    131072 words long.
 Raffenetti 1 integral format.
 Two-electron integral symmetry is turned on.
    94 basis functions,   142 primitive gaussians,   104 cartesian basis functions
    13 alpha electrons       13 beta electrons
       nuclear repulsion energy        59.1726934036 Hartrees.
 NAtoms=    5 NActive=    5 NUniq=    5 SFac= 7.50D-01 NAtFMM=   80 NAOKFM=F Big=F
 One-electron integrals computed using PRISM.
 NBasis=    94 RedAO= T  NBF=    94
 NBsUse=    94 1.00D-06 NBFU=    94
 Initial guess read from the read-write file.
 B after Tr=     0.000000    0.000000    0.000000
         Rot=    1.000000    0.000000    0.000000    0.000000 Ang=   0.00 deg.
 Initial guess orbital symmetries:
       Occupied  (A) (A) (A) (A) (A) (A) (A) (A) (A) (A) (A) (A)
                 (A)
       Virtual   (A) (A) (A) (A) (A) (A) (A) (A) (A) (A) (A) (A)
                 (A) (A) (A) (A) (A) (A) (A) (A) (A) (A) (A) (A)
                 (A) (A) (A) (A) (A) (A) (A) (A) (A) (A) (A) (A)
                 (A) (A) (A) (A) (A) (A) (A) (A) (A) (A) (A) (A)
                 (A) (A) (A) (A) (A) (A) (A) (A) (A) (A) (A) (A)
                 (A) (A) (A) (A) (A) (A) (A) (A) (A) (A) (A) (A)
                 (A) (A) (A) (A) (A) (A) (A) (A) (A)
 Harris functional with IExCor=  205 diagonalized for initial guess.
 ExpMin= 4.05D-02 ExpMax= 9.34D+04 ExpMxC= 3.17D+03 IAcc=2 IRadAn=         0 AccDes= 0.00D+00
 HarFok:  IExCor=  205 AccDes= 0.00D+00 IRadAn=         0 IDoV= 1
 ScaDFX=  1.000000  1.000000  1.000000  1.000000
 FoFCou: FMM=F IPFlag=           0 FMFlag=      100000 FMFlg1=           0
         NFxFlg=           0 DoJE=T BraDBF=F KetDBF=T FulRan=T
         Omega=  0.000000  0.000000  1.000000  0.000000  0.000000 ICntrl=     500 IOpCl=  0
         NMat0=    1 NMatS0=    1 NMatT0=    0 NMatD0=    1 NMtDS0=    0 NMtDT0=    0
         I1Cent=           4 NGrid=           0.
 Petite list used in FoFCou.
 Requested convergence on RMS density matrix=1.00D-08 within 128 cycles.
 Requested convergence on MAX density matrix=1.00D-06.
 Requested convergence on             energy=1.00D-06.
 No special actions if energy rises.
 Keep R1 ints in memory in canonical form, NReq=16900733.
 SCF Done:  E(RHF) =  -453.737358556     A.U. after   12 cycles
             Convg  =    0.5436D-08             -V/T =  2.0000
 Calling FoFJK, ICntrl=      2127 FMM=F ISym2X=0 I1Cent= 0 IOpClX= 0 NMat=1 NMatS=1 NMatT=0.
 ***** Axes restored to original set *****
 -------------------------------------------------------------------
 Center     Atomic                   Forces (Hartrees/Bohr)
 Number     Number              X              Y              Z
 -------------------------------------------------------------------
      1        7           0.004691582    0.006166336   -0.004898742
      2        1          -0.000082676   -0.003111248    0.002512313
      3       16          -0.001041633   -0.004778586    0.003797028
      4        1           0.000385412   -0.000927676   -0.000943752
      5        1          -0.003952686    0.002651175   -0.000466847
 -------------------------------------------------------------------
 Cartesian Forces:  Max     0.006166336 RMS     0.003297860

 GradGradGradGradGradGradGradGradGradGradGradGradGradGradGradGradGradGrad
 Berny optimization.
 Using GEDIIS/GDIIS optimizer.
 Internal  Forces:  Max     0.006061710 RMS     0.003382510
 Search for a local minimum.
 Step number   6 out of a maximum of   20
 All quantities printed in internal units (Hartrees-Bohrs-Radians)
 Mixed Optimization -- RFO/linear search
 Update second derivatives using D2CorX and points    3    4    5    6
 DE= -2.71D-03 DEPred=-9.04D-04 R= 3.00D+00
 SS=  1.41D+00  RLast= 4.13D-01 DXNew= 1.4270D+00 1.2397D+00
 Trust test= 3.00D+00 RLast= 4.13D-01 DXMaxT set to 1.24D+00
 The second derivative matrix:
                          R1        R2        R3        R4        A1
           R1           0.31619
           R2          -0.08223   0.43977
           R3          -0.01033   0.01788   0.47688
           R4           0.00027   0.00250  -0.00269   0.27389
           A1           0.01749  -0.01041   0.00107   0.00177   0.10294
           A2           0.01499  -0.02621   0.01704   0.00103  -0.02863
           A3           0.00981  -0.00554   0.00810   0.00462  -0.01709
           A4          -0.03939   0.17722   0.02411  -0.02058  -0.08563
           D1          -0.00185   0.00792   0.00086   0.00039   0.00034
           D2          -0.00282  -0.00085   0.00032  -0.00176  -0.00315
                          A2        A3        A4        D1        D2
           A2           0.11047
           A3          -0.03557   0.14455
           A4          -0.00047  -0.04460   0.42753
           D1          -0.00708  -0.00506   0.01140   0.00280
           D2           0.00883   0.00331   0.00529   0.00003   0.00278
 Use linear search instead of GDIIS.
     Eigenvalues ---    0.00238   0.00466   0.10920   0.15945   0.25170
     Eigenvalues ---    0.27581   0.31863   0.47141   0.645251000.00000
 RFO step:  Lambda=-9.60260796D-04 EMin= 2.38135906D-03
 Quartic linear search produced a step of  0.23915.
 Iteration  1 RMS(Cart)=  0.08374249 RMS(Int)=  0.05033871
 Iteration  2 RMS(Cart)=  0.04776462 RMS(Int)=  0.02086824
 Iteration  3 RMS(Cart)=  0.00302616 RMS(Int)=  0.02066181
 Iteration  4 RMS(Cart)=  0.00017650 RMS(Int)=  0.02066138
 Iteration  5 RMS(Cart)=  0.00001125 RMS(Int)=  0.02066138
 Iteration  6 RMS(Cart)=  0.00000073 RMS(Int)=  0.02066138
 Variable       Old X    -DE/DX   Delta X   Delta X   Delta X     New X
                                 (Linear)    (Quad)   (Total)
    R1        1.87600   0.00075   0.00434   0.01353   0.01787   1.89386
    R2        3.13607   0.00559  -0.00260   0.02499   0.02239   3.15846
    R3        1.86922   0.00461   0.00109   0.01296   0.01405   1.88327
    R4        2.53103  -0.00079   0.00067  -0.00179  -0.00112   2.52991
    A1        2.08015  -0.00606  -0.01351  -0.09213  -0.12754   1.95261
    A2        1.98774   0.00135  -0.01795  -0.05154  -0.10852   1.87923
    A3        2.03314   0.00112  -0.01125  -0.03628  -0.06921   1.96393
    A4        1.78349   0.00280  -0.01271  -0.01685  -0.02956   1.75393
    D1        1.22318  -0.00226  -0.07316  -0.00667  -0.04986   1.17333
    D2       -1.26927   0.00282   0.05995   0.29421   0.32419  -0.94508
         Item               Value     Threshold  Converged?
 Maximum Force            0.006062     0.000450     NO 
 RMS     Force            0.003383     0.000300     NO 
 Maximum Displacement     0.193526     0.001800     NO 
 RMS     Displacement     0.121991     0.001200     NO 
 Predicted change in Energy=-1.070334D-03
 GradGradGradGradGradGradGradGradGradGradGradGradGradGradGradGradGradGrad

                          Input orientation:                          
 ---------------------------------------------------------------------
 Center     Atomic      Atomic             Coordinates (Angstroms)
 Number     Number       Type             X           Y           Z
 ---------------------------------------------------------------------
      1          7           0        0.275094    0.851215   -0.115493
      2          1           0        0.648249    1.185588    0.752456
      3         16           0        0.045462   -0.804230   -0.098096
      4          1           0       -0.938182   -0.904455    0.804516
      5          1           0       -0.567750    1.351690   -0.295252
 ---------------------------------------------------------------------
                    Distance matrix (angstroms):
                    1          2          3          4          5
     1  N    0.000000
     2  H    1.002190   0.000000
     3  S    1.671386   2.246367   0.000000
     4  H    2.323969   2.624453   1.338772   0.000000
     5  H    0.996582   1.613672   2.250087   2.537105   0.000000
 Stoichiometry    H3NS
 Framework group  C1[X(H3NS)]
 Deg. of freedom     9
 Full point group                 C1      NOp   1
 Largest Abelian subgroup         C1      NOp   1
 Largest concise Abelian subgroup C1      NOp   1
                         Standard orientation:                         
 ---------------------------------------------------------------------
 Center     Atomic      Atomic             Coordinates (Angstroms)
 Number     Number       Type             X           Y           Z
 ---------------------------------------------------------------------
      1          7           0        1.072011   -0.094569   -0.028319
      2          1           0        1.457163    0.128219    0.869683
      3         16           0       -0.599195   -0.077468   -0.010799
      4          1           0       -0.827583    1.226300    0.190044
      5          1           0        1.453467    0.546956   -0.688707
 ---------------------------------------------------------------------
 Rotational constants (GHZ):    150.1160558     14.9813287     14.6382768
 Standard basis: 6-311+G(2df,p) (5D, 7F)
 There are    94 symmetry adapted basis functions of A   symmetry.
 Integral buffers will be    131072 words long.
 Raffenetti 1 integral format.
 Two-electron integral symmetry is turned on.
    94 basis functions,   142 primitive gaussians,   104 cartesian basis functions
    13 alpha electrons       13 beta electrons
       nuclear repulsion energy        59.0618044689 Hartrees.
 NAtoms=    5 NActive=    5 NUniq=    5 SFac= 7.50D-01 NAtFMM=   80 NAOKFM=F Big=F
 One-electron integrals computed using PRISM.
 NBasis=    94 RedAO= T  NBF=    94
 NBsUse=    94 1.00D-06 NBFU=    94
 Initial guess read from the read-write file.
 B after Tr=     0.000000    0.000000    0.000000
         Rot=    1.000000    0.000000    0.000000    0.000000 Ang=   0.00 deg.
 Initial guess orbital symmetries:
       Occupied  (A) (A) (A) (A) (A) (A) (A) (A) (A) (A) (A) (A)
                 (A)
       Virtual   (A) (A) (A) (A) (A) (A) (A) (A) (A) (A) (A) (A)
                 (A) (A) (A) (A) (A) (A) (A) (A) (A) (A) (A) (A)
                 (A) (A) (A) (A) (A) (A) (A) (A) (A) (A) (A) (A)
                 (A) (A) (A) (A) (A) (A) (A) (A) (A) (A) (A) (A)
                 (A) (A) (A) (A) (A) (A) (A) (A) (A) (A) (A) (A)
                 (A) (A) (A) (A) (A) (A) (A) (A) (A) (A) (A) (A)
                 (A) (A) (A) (A) (A) (A) (A) (A) (A)
 Harris functional with IExCor=  205 diagonalized for initial guess.
 ExpMin= 4.05D-02 ExpMax= 9.34D+04 ExpMxC= 3.17D+03 IAcc=2 IRadAn=         0 AccDes= 0.00D+00
 HarFok:  IExCor=  205 AccDes= 0.00D+00 IRadAn=         0 IDoV= 1
 ScaDFX=  1.000000  1.000000  1.000000  1.000000
 FoFCou: FMM=F IPFlag=           0 FMFlag=      100000 FMFlg1=           0
         NFxFlg=           0 DoJE=T BraDBF=F KetDBF=T FulRan=T
         Omega=  0.000000  0.000000  1.000000  0.000000  0.000000 ICntrl=     500 IOpCl=  0
         NMat0=    1 NMatS0=    1 NMatT0=    0 NMatD0=    1 NMtDS0=    0 NMtDT0=    0
         I1Cent=           4 NGrid=           0.
 Petite list used in FoFCou.
 Requested convergence on RMS density matrix=1.00D-08 within 128 cycles.
 Requested convergence on MAX density matrix=1.00D-06.
 Requested convergence on             energy=1.00D-06.
 No special actions if energy rises.
 Keep R1 ints in memory in canonical form, NReq=16900733.
 SCF Done:  E(RHF) =  -453.736781348     A.U. after   14 cycles
             Convg  =    0.4275D-08             -V/T =  2.0000
 Calling FoFJK, ICntrl=      2127 FMM=F ISym2X=0 I1Cent= 0 IOpClX= 0 NMat=1 NMatS=1 NMatT=0.
 ***** Axes restored to original set *****
 -------------------------------------------------------------------
 Center     Atomic                   Forces (Hartrees/Bohr)
 Number     Number              X              Y              Z
 -------------------------------------------------------------------
      1        7           0.001224924    0.014512841    0.010245961
      2        1           0.002580563   -0.001004064   -0.004190471
      3       16          -0.005272165   -0.010594795    0.000554495
      4        1           0.001925190   -0.003959949   -0.000328107
      5        1          -0.000458513    0.001045966   -0.006281879
 -------------------------------------------------------------------
 Cartesian Forces:  Max     0.014512841 RMS     0.006016337

 GradGradGradGradGradGradGradGradGradGradGradGradGradGradGradGradGradGrad
 Berny optimization.
 Using GEDIIS/GDIIS optimizer.
 Internal  Forces:  Max     0.014878124 RMS     0.006645105
 Search for a local minimum.
 Step number   7 out of a maximum of   20
 All quantities printed in internal units (Hartrees-Bohrs-Radians)
 Mixed Optimization -- RFO/linear search
 Update second derivatives using D2CorX and points    3    4    5    7    6
 DE=  5.77D-04 DEPred=-1.07D-03 R=-5.39D-01
 Trust test=-5.39D-01 RLast= 3.77D-01 DXMaxT set to 6.20D-01
 The second derivative matrix:
                          R1        R2        R3        R4        A1
           R1           0.31825
           R2          -0.08813   0.43094
           R3          -0.00833  -0.00544   0.46611
           R4           0.00019   0.01100   0.00171   0.27389
           A1           0.00934   0.05593   0.02310  -0.00474   0.07107
           A2           0.01079  -0.01799   0.01765  -0.00254  -0.03411
           A3           0.00483   0.01006   0.00822   0.00654  -0.00894
           A4          -0.03529   0.12964   0.00256  -0.02466  -0.05880
           D1          -0.00593   0.01541  -0.00399   0.00078   0.01621
           D2           0.00466  -0.02096   0.00492  -0.00166  -0.02338
                          A2        A3        A4        D1        D2
           A2           0.10641
           A3          -0.04996   0.13825
           A4           0.04698  -0.03409   0.42748
           D1          -0.00338  -0.00183   0.01335   0.00890
           D2           0.00551  -0.00125  -0.00316  -0.01109   0.02184
 Use linear search instead of GDIIS.
     Eigenvalues ---    0.00300   0.03876   0.06536   0.15702   0.26510
     Eigenvalues ---    0.27960   0.36713   0.46732   0.590141000.00000
 RFO step:  Lambda=-5.32444152D-04 EMin= 3.00063079D-03
 Quartic linear search produced a step of -0.57688.
 Iteration  1 RMS(Cart)=  0.07810248 RMS(Int)=  0.00843009
 Iteration  2 RMS(Cart)=  0.00646855 RMS(Int)=  0.00425939
 Iteration  3 RMS(Cart)=  0.00005875 RMS(Int)=  0.00425904
 Iteration  4 RMS(Cart)=  0.00000061 RMS(Int)=  0.00425904
 Variable       Old X    -DE/DX   Delta X   Delta X   Delta X     New X
                                 (Linear)    (Quad)   (Total)
    R1        1.89386  -0.00300  -0.01031   0.00672  -0.00358   1.89028
    R2        3.15846   0.01488  -0.01292   0.03215   0.01924   3.17770
    R3        1.88327   0.00205  -0.00810   0.00974   0.00163   1.88490
    R4        2.52991  -0.00134   0.00064  -0.00663  -0.00599   2.52392
    A1        1.95261   0.00358   0.07358  -0.05251   0.02671   1.97932
    A2        1.87923   0.00448   0.06260   0.02353   0.09416   1.97338
    A3        1.96393   0.00301   0.03992   0.01534   0.06078   2.02471
    A4        1.75393   0.01003   0.01705  -0.00422   0.01283   1.76676
    D1        1.17333   0.00356   0.02876  -0.02441  -0.00088   1.17244
    D2       -0.94508  -0.00707  -0.18702  -0.02778  -0.20957  -1.15465
         Item               Value     Threshold  Converged?
 Maximum Force            0.014878     0.000450     NO 
 RMS     Force            0.006645     0.000300     NO 
 Maximum Displacement     0.135386     0.001800     NO 
 RMS     Displacement     0.082444     0.001200     NO 
 Predicted change in Energy=-8.847618D-04
 GradGradGradGradGradGradGradGradGradGradGradGradGradGradGradGradGradGrad

                          Input orientation:                          
 ---------------------------------------------------------------------
 Center     Atomic      Atomic             Coordinates (Angstroms)
 Number     Number       Type             X           Y           Z
 ---------------------------------------------------------------------
      1          7           0        0.239496    0.857656   -0.078677
      2          1           0        0.660394    1.184881    0.767701
      3         16           0        0.014063   -0.808398   -0.111927
      4          1           0       -0.911797   -0.964557    0.837931
      5          1           0       -0.539282    1.410226   -0.366896
 ---------------------------------------------------------------------
                    Distance matrix (angstroms):
                    1          2          3          4          5
     1  N    0.000000
     2  H    1.000294   0.000000
     3  S    1.681566   2.272587   0.000000
     4  H    2.342244   2.663982   1.335603   0.000000
     5  H    0.997446   1.666527   2.300759   2.688860   0.000000
 Stoichiometry    H3NS
 Framework group  C1[X(H3NS)]
 Deg. of freedom     9
 Full point group                 C1      NOp   1
 Largest Abelian subgroup         C1      NOp   1
 Largest concise Abelian subgroup C1      NOp   1
                         Standard orientation:                         
 ---------------------------------------------------------------------
 Center     Atomic      Atomic             Coordinates (Angstroms)
 Number     Number       Type             X           Y           Z
 ---------------------------------------------------------------------
      1          7           0        1.077637   -0.074418   -0.000985
      2          1           0        1.474086    0.287224    0.843190
      3         16           0       -0.603919   -0.080045   -0.000410
      4          1           0       -0.868362    1.229101   -0.006872
      5          1           0        1.513524    0.285314   -0.822869
 ---------------------------------------------------------------------
 Rotational constants (GHZ):    152.9843895     14.6519697     14.4403580
 Standard basis: 6-311+G(2df,p) (5D, 7F)
 There are    94 symmetry adapted basis functions of A   symmetry.
 Integral buffers will be    131072 words long.
 Raffenetti 1 integral format.
 Two-electron integral symmetry is turned on.
    94 basis functions,   142 primitive gaussians,   104 cartesian basis functions
    13 alpha electrons       13 beta electrons
       nuclear repulsion energy        58.7019771105 Hartrees.
 NAtoms=    5 NActive=    5 NUniq=    5 SFac= 7.50D-01 NAtFMM=   80 NAOKFM=F Big=F
 One-electron integrals computed using PRISM.
 NBasis=    94 RedAO= T  NBF=    94
 NBsUse=    94 1.00D-06 NBFU=    94
 Initial guess read from the read-write file.
 B after Tr=     0.000000    0.000000    0.000000
         Rot=    1.000000    0.000000    0.000000    0.000000 Ang=   0.00 deg.
 Initial guess orbital symmetries:
       Occupied  (A) (A) (A) (A) (A) (A) (A) (A) (A) (A) (A) (A)
                 (A)
       Virtual   (A) (A) (A) (A) (A) (A) (A) (A) (A) (A) (A) (A)
                 (A) (A) (A) (A) (A) (A) (A) (A) (A) (A) (A) (A)
                 (A) (A) (A) (A) (A) (A) (A) (A) (A) (A) (A) (A)
                 (A) (A) (A) (A) (A) (A) (A) (A) (A) (A) (A) (A)
                 (A) (A) (A) (A) (A) (A) (A) (A) (A) (A) (A) (A)
                 (A) (A) (A) (A) (A) (A) (A) (A) (A) (A) (A) (A)
                 (A) (A) (A) (A) (A) (A) (A) (A) (A)
 Harris functional with IExCor=  205 diagonalized for initial guess.
 ExpMin= 4.05D-02 ExpMax= 9.34D+04 ExpMxC= 3.17D+03 IAcc=2 IRadAn=         0 AccDes= 0.00D+00
 HarFok:  IExCor=  205 AccDes= 0.00D+00 IRadAn=         0 IDoV= 1
 ScaDFX=  1.000000  1.000000  1.000000  1.000000
 FoFCou: FMM=F IPFlag=           0 FMFlag=      100000 FMFlg1=           0
         NFxFlg=           0 DoJE=T BraDBF=F KetDBF=T FulRan=T
         Omega=  0.000000  0.000000  1.000000  0.000000  0.000000 ICntrl=     500 IOpCl=  0
         NMat0=    1 NMatS0=    1 NMatT0=    0 NMatD0=    1 NMtDS0=    0 NMtDT0=    0
         I1Cent=           4 NGrid=           0.
 Petite list used in FoFCou.
 Requested convergence on RMS density matrix=1.00D-08 within 128 cycles.
 Requested convergence on MAX density matrix=1.00D-06.
 Requested convergence on             energy=1.00D-06.
 No special actions if energy rises.
 Keep R1 ints in memory in canonical form, NReq=16900733.
 SCF Done:  E(RHF) =  -453.737838967     A.U. after   13 cycles
             Convg  =    0.4993D-08             -V/T =  2.0001
 Calling FoFJK, ICntrl=      2127 FMM=F ISym2X=0 I1Cent= 0 IOpClX= 0 NMat=1 NMatS=1 NMatT=0.
 ***** Axes restored to original set *****
 -------------------------------------------------------------------
 Center     Atomic                   Forces (Hartrees/Bohr)
 Number     Number              X              Y              Z
 -------------------------------------------------------------------
      1        7           0.005456752    0.000901096    0.002982044
      2        1          -0.003100109    0.001054366   -0.004519212
      3       16          -0.002646488    0.002800347    0.000066958
      4        1          -0.000363562   -0.002421647   -0.000012754
      5        1           0.000653408   -0.002334161    0.001482964
 -------------------------------------------------------------------
[...]
 Alpha virt. eigenvalues --    5.48627   5.60041   5.63844   5.82486   6.08322
 Alpha virt. eigenvalues --    8.92271  18.39636  18.44156  18.68954  37.09574
 Alpha virt. eigenvalues --  192.68910
          Condensed to atoms (all electrons):
              1          2          3          4          5
     1  N    6.580653   0.385947   0.110089  -0.062038   0.385995
     2  H    0.385947   0.438391  -0.037609  -0.001362  -0.037273
     3  S    0.110089  -0.037609  15.866070   0.301090  -0.037674
     4  H   -0.062038  -0.001362   0.301090   0.664819  -0.001358
     5  H    0.385995  -0.037273  -0.037674  -0.001358   0.438454
 Mulliken atomic charges:
              1
     1  N   -0.400646
     2  H    0.251906
     3  S   -0.201965
     4  H    0.098849
     5  H    0.251856
 Sum of Mulliken atomic charges =   0.00000
 Mulliken charges with hydrogens summed into heavy atoms:
              1
     1  N    0.103116
     3  S   -0.103116
 Sum of Mulliken charges with hydrogens summed into heavy atoms =   0.00000
 APT atomic charges:
              1
     1  N   -0.514172
     2  H    0.166420
     3  S    0.228557
     4  H   -0.047142
     5  H    0.166337
 Sum of APT charges=   0.00000
 APT Atomic charges with hydrogens summed into heavy atoms:
              1
     1  N   -0.181415
     2  H    0.000000
     3  S    0.181415
     4  H    0.000000
     5  H    0.000000
 Sum of APT charges=   0.00000
 Electronic spatial extent (au):  <R**2>=            124.0232
 Charge=              0.0000 electrons
 Dipole moment (field-independent basis, Debye):
    X=              1.1075    Y=              2.0626    Z=              0.0013  Tot=              2.3411
 Quadrupole moment (field-independent basis, Debye-Ang):
   XX=            -18.4678   YY=            -20.3120   ZZ=            -20.4362
   XY=              0.9291   XZ=              0.0025   YZ=             -0.0008
 Traceless Quadrupole moment (field-independent basis, Debye-Ang):
   XX=              1.2709   YY=             -0.5734   ZZ=             -0.6975
   XY=              0.9291   XZ=              0.0025   YZ=             -0.0008
 Octapole moment (field-independent basis, Debye-Ang**2):
  XXX=              4.2126  YYY=              2.4831  ZZZ=              0.0013  XYY=             -0.8749
  XXY=              4.8835  XXZ=              0.0074  XZZ=              5.7995  YZZ=              1.4258
  YYZ=             -0.0007  XYZ=             -0.0056
 Hexadecapole moment (field-independent basis, Debye-Ang**3):
 XXXX=           -101.0235 YYYY=            -31.4380 ZZZZ=            -31.6083 XXXY=              4.2876
 XXXZ=              0.0158 YYYX=              0.1046 YYYZ=              0.0009 ZZZX=              0.0034
 ZZZY=             -0.0019 XXYY=            -25.3108 XXZZ=            -20.8363 YYZZ=            -11.0250
 XXYZ=             -0.0033 YYXZ=             -0.0013 ZZXY=              1.1443
 N-N= 5.870503608287D+01 E-N=-1.196088542201D+03  KE= 4.537144395456D+02
  Exact polarizability:  31.268  -1.971  24.874   0.000   0.001  24.301
 Approx polarizability:  26.409  -1.936  23.524   0.001   0.001  22.492
 Calling FoFJK, ICntrl=    100127 FMM=F ISym2X=0 I1Cent= 0 IOpClX= 0 NMat=1 NMatS=1 NMatT=0.
 Full mass-weighted force constant matrix:
 Low frequencies ---   -7.4158    0.0047    0.0049    0.0057   15.7714   27.6361
 Low frequencies ---  561.4091  666.2409  925.6293
 Diagonal vibrational polarizability:
        3.9414690       8.0909556       0.2563609
 Diagonal vibrational hyperpolarizability:
      -19.5165762      -6.0776899       0.0135380
 Harmonic frequencies (cm**-1), IR intensities (KM/Mole), Raman scattering
 activities (A**4/AMU), depolarization ratios for plane and unpolarized
 incident light, reduced masses (AMU), force constants (mDyne/A),
 and normal coordinates:
                     1                      2                      3
                     A                      A                      A
 Frequencies --   561.4087               666.2405               925.6292
 Red. masses --     1.0554                 1.6328                 2.6497
 Frc consts  --     0.1960                 0.4270                 1.3376
 IR Inten    --     1.6141               171.6140                22.7583
 Raman Activ --     1.2968                 2.5732                14.8087
 Depolar (P) --     0.7500                 0.2975                 0.2992
 Depolar (U) --     0.8571                 0.4585                 0.4606
  Atom  AN      X      Y      Z        X      Y      Z        X      Y      Z
     1   7     0.00   0.00   0.04    -0.16   0.11   0.00     0.27   0.07   0.00
     2   1     0.01   0.47  -0.18     0.25  -0.62   0.09     0.51  -0.38   0.07
     3  16     0.00   0.00  -0.03     0.06  -0.01   0.00    -0.14   0.00   0.00
     4   1     0.00   0.00   0.70    -0.19  -0.05   0.00    -0.29  -0.05   0.00
     5   1    -0.01  -0.47  -0.18     0.25  -0.62  -0.09     0.51  -0.38  -0.07
                     4                      5                      6
                     A                      A                      A
 Frequencies --  1119.4949              1192.8660              1754.3351
 Red. masses --     1.1343                 1.1079                 1.0859
 Frc consts  --     0.8376                 0.9288                 1.9690
 IR Inten    --    30.7134                 2.8472                14.1805
 Raman Activ --    11.3581                 1.5376                 3.9406
 Depolar (P) --     0.6016                 0.7500                 0.7388
 Depolar (U) --     0.7512                 0.8571                 0.8498
  Atom  AN      X      Y      Z        X      Y      Z        X      Y      Z
     1   7    -0.01   0.07   0.00     0.00   0.00   0.08     0.07   0.03   0.00
     2   1     0.04  -0.08   0.04     0.67  -0.12  -0.19    -0.53  -0.25   0.39
     3  16    -0.03  -0.03   0.00     0.00   0.00  -0.02     0.00   0.00   0.00
     4   1     0.97   0.17   0.00     0.00   0.00  -0.04    -0.04   0.00   0.00
     5   1     0.03  -0.08  -0.04    -0.67   0.12  -0.19    -0.53  -0.25  -0.39
                     7                      8                      9
                     A                      A                      A
 Frequencies --  2757.9138              3754.5497              3858.5038
 Red. masses --     1.0392                 1.0459                 1.1008
 Frc consts  --     4.6570                 8.6866                 9.6558
 IR Inten    --    33.1558                 6.3317                35.8709
 Raman Activ --   180.4549               104.1199                56.2048
 Depolar (P) --     0.3057                 0.0993                 0.7499
 Depolar (U) --     0.4683                 0.1807                 0.8571
  Atom  AN      X      Y      Z        X      Y      Z        X      Y      Z
     1   7     0.00   0.00   0.00    -0.04  -0.03   0.00     0.00   0.00   0.08
     2   1     0.00   0.00   0.00     0.28   0.24   0.60    -0.29  -0.26  -0.58
     3  16    -0.01   0.03   0.00     0.00   0.00   0.00     0.00   0.00   0.00
     4   1     0.20  -0.98   0.00     0.00   0.00   0.00     0.00   0.00   0.00
     5   1     0.00   0.00   0.00     0.28   0.24  -0.60     0.29   0.27  -0.59

 -------------------
 - Thermochemistry -
 -------------------
 Temperature   298.150 Kelvin.  Pressure   1.00000 Atm.
 Atom     1 has atomic number  7 and mass  14.00307
 Atom     2 has atomic number  1 and mass   1.00783
 Atom     3 has atomic number 16 and mass  31.97207
 Atom     4 has atomic number  1 and mass   1.00783
 Atom     5 has atomic number  1 and mass   1.00783
 Molecular mass:    48.99862 amu.
 Principal axes and moments of inertia in atomic units:
                           1         2         3
     Eigenvalues --    11.73366 123.22397 125.14844
           X            0.99999  -0.00396   0.00001
           Y            0.00396   0.99999  -0.00008
           Z           -0.00001   0.00008   1.00000
 This molecule is an asymmetric top.
 Rotational symmetry number  1.
 Rotational temperatures (Kelvin)      7.38166     0.70290     0.69209
 Rotational constants (GHZ):         153.80894    14.64602    14.42080
 Zero-point vibrational energy      99235.9 (Joules/Mol)
                                   23.71794 (Kcal/Mol)
 Warning -- explicit consideration of   1 degrees of freedom as
           vibrations may cause significant error
 Vibrational temperatures:    807.74   958.57  1331.77  1610.70  1716.27
          (Kelvin)           2524.09  3968.02  5401.95  5551.52
 
 Zero-point correction=                           0.037797 (Hartree/Particle)
 Thermal correction to Energy=                    0.041030
 Thermal correction to Enthalpy=                  0.041974
 Thermal correction to Gibbs Free Energy=         0.014168
 Sum of electronic and zero-point Energies=           -453.700247
 Sum of electronic and thermal Energies=              -453.697014
 Sum of electronic and thermal Enthalpies=            -453.696070
 Sum of electronic and thermal Free Energies=         -453.723876
 
                     E (Thermal)             CV                S
                      KCal/Mol        Cal/Mol-Kelvin    Cal/Mol-Kelvin
 Total                   25.747              8.941             58.523
 Electronic               0.000              0.000              0.000
 Translational            0.889              2.981             37.592
 Rotational               0.889              2.981             19.831
 Vibrational             23.969              2.980              1.100
 Vibration     1          0.917              1.115              0.521
                       Q            Log10(Q)             Ln(Q)
 Total Bot       0.304211D-06         -6.516825        -15.005544
 Total V=0       0.738799D+11         10.868526         25.025707
 Vib (Bot)       0.468620D-17        -17.329179        -39.901910
 Vib (Bot)    1  0.276464D+00         -0.558362         -1.285676
 Vib (V=0)       0.113808D+01          0.056172          0.129340
 Vib (V=0)    1  0.107134D+01          0.029928          0.068912
 Electronic      0.100000D+01          0.000000          0.000000
 Translational   0.134813D+08          7.129731         16.416812
 Rotational      0.481530D+04          3.682623          8.479554
 ***** Axes restored to original set *****
 -------------------------------------------------------------------
 Center     Atomic                   Forces (Hartrees/Bohr)
 Number     Number              X              Y              Z
 -------------------------------------------------------------------
      1        7           0.000056090    0.000112171   -0.000023087
      2        1          -0.000014112   -0.000246264   -0.000067531
      3       16          -0.000061026    0.000341299    0.000199068
      4        1           0.000036492   -0.000108029   -0.000051433
      5        1          -0.000017444   -0.000099176   -0.000057018
 -------------------------------------------------------------------
 Cartesian Forces:  Max     0.000341299 RMS     0.000134299

 GradGradGradGradGradGradGradGradGradGradGradGradGradGradGradGradGradGrad
 Berny optimization.
 Internal  Forces:  Max     0.000291755 RMS     0.000164824
 Search for a local minimum.
 Step number   1 out of a maximum of    2
 All quantities printed in internal units (Hartrees-Bohrs-Radians)
 Second derivative matrix not updated -- analytic derivatives used.
 The second derivative matrix:
                          R1        R2        R3        R4        A1
           R1           0.51623
           R2           0.00158   0.31931
           R3          -0.00025   0.00159   0.51662
           R4           0.00012   0.00960   0.00012   0.28104
           A1           0.00266   0.03953  -0.00096  -0.00039   0.13102
           A2           0.01281  -0.01761   0.01281  -0.00029  -0.04899
           A3          -0.00096   0.03962   0.00265  -0.00038  -0.04010
           A4          -0.00495   0.03485  -0.00495  -0.00891  -0.00408
           D1           0.01005   0.02676   0.01076  -0.00060   0.01294
           D2          -0.01077  -0.02676  -0.01005   0.00061  -0.00559
                          A2        A3        A4        D1        D2
           A2           0.07978
           A3          -0.04904   0.13112
           A4           0.00491  -0.00409   0.27486
           D1           0.01009   0.00566  -0.00045   0.02556
           D2          -0.01009  -0.01300   0.00047  -0.00823   0.02556
     Eigenvalues ---    0.01698   0.04046   0.13756   0.17148   0.25899
     Eigenvalues ---    0.28643   0.35440   0.51669   0.518111000.00000
 Angle between quadratic step and forces=  21.88 degrees.
 Linear search not attempted -- first point.
 Iteration  1 RMS(Cart)=  0.00077994 RMS(Int)=  0.00000064
 Iteration  2 RMS(Cart)=  0.00000053 RMS(Int)=  0.00000027
 Variable       Old X    -DE/DX   Delta X   Delta X   Delta X     New X
                                 (Linear)    (Quad)   (Total)
    R1        1.88242  -0.00015   0.00000  -0.00028  -0.00028   1.88214
    R2        3.17859  -0.00023   0.00000  -0.00048  -0.00048   3.17811
    R3        1.88219  -0.00002   0.00000  -0.00005  -0.00005   1.88214
    R4        2.52647  -0.00005   0.00000  -0.00012  -0.00012   2.52635
    A1        1.99956  -0.00026   0.00000  -0.00157  -0.00157   1.99798
    A2        1.95361   0.00018   0.00000   0.00094   0.00094   1.95455
    A3        1.99843  -0.00007   0.00000  -0.00045  -0.00045   1.99799
    A4        1.78747   0.00029   0.00000   0.00106   0.00106   1.78853
    D1        1.14569  -0.00004   0.00000  -0.00041  -0.00041   1.14529
    D2       -1.14552   0.00003   0.00000   0.00023   0.00023  -1.14529
         Item               Value     Threshold  Converged?
 Maximum Force            0.000292     0.000450     YES
 RMS     Force            0.000165     0.000300     YES
 Maximum Displacement     0.001527     0.001800     YES
 RMS     Displacement     0.000780     0.001200     YES
 Predicted change in Energy=-5.531913D-07
 Optimization completed.
    -- Stationary point found.
                           ----------------------------
                           !   Optimized Parameters   !
                           ! (Angstroms and Degrees)  !
 --------------------------                            --------------------------
 ! Name  Definition              Value          Derivative Info.                !
 --------------------------------------------------------------------------------
 ! R1    R(1,2)                  0.9961         -DE/DX =   -0.0001              !
 ! R2    R(1,3)                  1.682          -DE/DX =   -0.0002              !
 ! R3    R(1,5)                  0.996          -DE/DX =    0.0                 !
 ! R4    R(3,4)                  1.337          -DE/DX =    0.0                 !
 ! A1    A(2,1,3)              114.5662         -DE/DX =   -0.0003              !
 ! A2    A(2,1,5)              111.9336         -DE/DX =    0.0002              !
 ! A3    A(3,1,5)              114.5018         -DE/DX =   -0.0001              !
 ! A4    A(1,3,4)              102.4144         -DE/DX =    0.0003              !
 ! D1    D(2,1,3,4)             65.6434         -DE/DX =    0.0                 !
 ! D2    D(5,1,3,4)            -65.6332         -DE/DX =    0.0                 !
 --------------------------------------------------------------------------------
 GradGradGradGradGradGradGradGradGradGradGradGradGradGradGradGradGradGrad

 1\1\GINC-C080\Freq\RHF\6-311+G(2df,p)\H3N1S1\RMCCULL2HS2\29-May-2015\0
 \\#N Geom=AllCheck Guess=TCheck SCRF=Check GenChk RHF/6-311+G(2df,p) F
 req\\title\\0,1\N,0.252687825,0.8594049424,-0.0802390298\H,0.658632159
 3,1.2008908373,0.7628964205\S,0.005312841,-0.8040051419,-0.1136167699\
 H,-0.9177096041,-0.9764717033,0.8380774611\H,-0.5360493662,1.399988891
 6,-0.358986156\\Version=EM64L-G09RevA.02\State=1-A\HF=-453.738044\RMSD
 =1.144e-09\RMSF=1.343e-04\ZeroPoint=0.0377969\Thermal=0.04103\Dipole=-
 0.4822148,0.5024107,0.6028432\DipoleDeriv=-0.4320818,0.0105514,0.17278
 87,-0.1632229,-0.6731506,0.1023267,0.141803,-0.0830125,-0.4372835,0.29
 28689,0.0550476,-0.0374419,0.007876,0.0500501,-0.0217314,-0.057368,-0.
 0331363,0.1563399,-0.0067697,-0.0161336,-0.2304996,0.1385115,0.6658073
 ,0.0106747,-0.2029286,0.1752712,0.0266337,-0.0118668,-0.069259,0.14394
 ,0.0082018,-0.102213,-0.0510259,0.1577456,0.0314173,-0.0273451,0.15784
 95,0.0197935,-0.0487871,0.0086336,0.0595062,-0.040244,-0.0392521,-0.09
 05397,0.281655\Polar=25.1111573,2.2804542,30.7710548,-0.4555426,-1.270
 5028,24.5603257\PolarDeriv=2.8800216,-1.1489241,3.8366073,-0.0776683,-
 2.4428267,-0.547258,-0.6327683,2.0765281,5.1018195,-0.7919235,-0.36174
 25,-0.4107966,-0.7066145,-2.6381093,-1.8318545,-0.9300996,-0.902782,-3
 .3079161,1.2862309,1.178016,1.4242083,0.8998704,1.1449904,1.7510435,0.
 0700443,1.1615307,3.028789,0.5207509,1.7700049,1.2551931,1.477473,1.43
 77879,3.3846181,1.9370959,2.9464417,3.5906679,3.2556408,-0.6463905,0.1
 827547,-4.1545876,-0.7574517,3.6296989,0.1274549,0.7826669,-10.900565,
 -0.8255273,-2.372906,-0.3054277,-3.6021367,-0.7197093,-1.6174142,4.006
 1902,-1.050865,-4.2808156,-4.806737,-2.2529215,-1.2284902,4.3985337,1.
 1186775,-3.9059857,-0.962925,-1.8888054,-2.1782565,0.816733,1.7875057,
 -0.5753779,3.8907099,1.1243952,1.2618096,-4.6530773,-1.8984108,4.76459
 85,-2.6151563,2.8702201,-4.2150802,-1.0661482,0.9366105,-0.9274987,1.3
 981941,-2.1319204,4.9482129,0.2799668,-0.8228622,0.036409,-1.0594317,0
 .7956355,-1.197159,-0.3601092,0.905616,-0.7665347\HyperPolar=-7.030754
 6,-27.2055763,3.5670223,-33.0258726,5.8832091,-11.087867,3.9224901,-15
 .6531778,-23.9548123,-4.4056363\PG=C01 [X(H3N1S1)]\NImag=0\\0.47828452
 ,-0.12634802,0.55405530,0.30318459,0.09364699,0.47759838,-0.10330445,-
 0.03082095,-0.15423236,0.11618460,-0.04851416,-0.10888865,-0.12565002,
 0.05261752,0.11985521,-0.19466773,-0.13712233,-0.36918747,0.18316098,0
 .12993369,0.37184500,-0.04439700,-0.04004893,-0.00993023,0.00203738,-0
 .01163444,0.00592983,0.17297450,0.01187239,-0.24786006,-0.04842200,-0.
 00861319,-0.02504407,0.00993323,0.02835021,0.33610091,-0.00069091,0.00
 681730,-0.04509113,0.00189430,-0.02638985,0.00419074,-0.14321717,0.023
 70926,0.19033399,0.00074643,-0.00684213,-0.00005430,-0.00233651,-0.000
 62287,0.00152410,-0.13726956,-0.01540561,0.13712696,0.13695350,-0.0244
 6700,-0.01624852,0.02282503,0.00063975,0.00227035,0.00098882,0.0028925
 9,-0.03385221,-0.00808164,0.02210871,0.04560647,-0.00319560,0.00406083
 ,0.00596746,-0.00267554,-0.00018099,0.00210719,0.14039131,0.01139477,-
 0.15325752,-0.13573991,-0.01641180,0.14727666,-0.33132950,0.20406004,-
 0.13896769,-0.01258102,0.00815396,0.00405282,0.00665467,-0.01620381,0.
 00488682,0.00190613,-0.00117406,0.00121974,0.33534972,0.18745679,-0.18
 105807,0.05760001,-0.01382313,0.01180715,-0.00373341,0.02044057,-0.029
 34457,0.00394494,0.00076190,0.00222391,0.00113720,-0.19483613,0.196371
 58,-0.10463034,0.03259722,-0.06928724,-0.02814738,0.02228718,-0.008955
 46,0.00682627,0.00338474,0.00382393,-0.00285685,0.00067960,-0.00209380
 ,0.12880830,-0.05894873,0.07651257\\-0.00005609,-0.00011217,0.00002309
 ,0.00001411,0.00024626,0.00006753,0.00006103,-0.00034130,-0.00019907,-
 0.00003649,0.00010803,0.00005143,0.00001744,0.00009918,0.00005702\\\@


 IT IS BY EATING THE LIGHT OF A STAR THAT WE EXIST, 
 IN THE FINAL ANALYSIS, 
 JUST AS IT IS BY PERCEIVING THE LIGHT OF STARS
 THAT WE DEFINE THE WORLD AROUND US.

                                    -- GILBERT GROSVENOR
 Job cpu time:  0 days  0 hours  1 minutes 14.6 seconds.
 File lengths (MBytes):  RWF=      9 Int=      0 D2E=      0 Chk=      2 Scr=      1
 Normal termination of Gaussian 09 at Fri May 29 10:12:41 2015.
