 Entering Gaussian System, Link 0=g09
 Input=Gas-HF-6-311+G2dfp-Freq-Opt-COC3H4SNHCOC3H4.inp
 Output=Gas-HF-6-311+G2dfp-Freq-Opt-COC3H4SNHCOC3H4.log
 Initial command:
 /usr/local/g09/l1.exe /local/gaussian-tmp/3702322/Gau-14719.inp -scrdir=/local/gaussian-tmp/3702322/
 Entering Link 1 = /usr/local/g09/l1.exe PID=     14720.
  
 Copyright (c) 1988,1990,1992,1993,1995,1998,2003,2009, Gaussian, Inc.
                  All Rights Reserved.
  
 This is part of the Gaussian(R) 09 program.  It is based on
 the Gaussian(R) 03 system (copyright 2003, Gaussian, Inc.),
 the Gaussian(R) 98 system (copyright 1998, Gaussian, Inc.),
 the Gaussian(R) 94 system (copyright 1995, Gaussian, Inc.),
 the Gaussian 92(TM) system (copyright 1992, Gaussian, Inc.),
 the Gaussian 90(TM) system (copyright 1990, Gaussian, Inc.),
 the Gaussian 88(TM) system (copyright 1988, Gaussian, Inc.),
 the Gaussian 86(TM) system (copyright 1986, Carnegie Mellon
 University), and the Gaussian 82(TM) system (copyright 1983,
 Carnegie Mellon University). Gaussian is a federally registered
 trademark of Gaussian, Inc.
  
 This software contains proprietary and confidential information,
 including trade secrets, belonging to Gaussian, Inc.
  
 This software is provided under written license and may be
 used, copied, transmitted, or stored only in accord with that
 written license.
  
 The following legend is applicable only to US Government
 contracts under FAR:
  
                    RESTRICTED RIGHTS LEGEND
  
 Use, reproduction and disclosure by the US Government is
 subject to restrictions as set forth in subparagraphs (a)
 and (c) of the Commercial Computer Software - Restricted
 Rights clause in FAR 52.227-19.
  
 Gaussian, Inc.
 340 Quinnipiac St., Bldg. 40, Wallingford CT 06492
  
  
 ---------------------------------------------------------------
 Warning -- This program may not be used in any manner that
 competes with the business of Gaussian, Inc. or will provide
 assistance to any competitor of Gaussian, Inc.  The licensee
 of this program is prohibited from giving any competitor of
 Gaussian, Inc. access to this program.  By using this program,
 the user acknowledges that Gaussian, Inc. is engaged in the
 business of creating and licensing software in the field of
 computational chemistry and represents and warrants to the
 licensee that it is not a competitor of Gaussian, Inc. and that
 it will not use this program in any manner prohibited above.
 ---------------------------------------------------------------
  

 Cite this work as:
 Gaussian 09, Revision A.02,
 M. J. Frisch, G. W. Trucks, H. B. Schlegel, G. E. Scuseria, 
 M. A. Robb, J. R. Cheeseman, G. Scalmani, V. Barone, B. Mennucci, 
 G. A. Petersson, H. Nakatsuji, M. Caricato, X. Li, H. P. Hratchian, 
 A. F. Izmaylov, J. Bloino, G. Zheng, J. L. Sonnenberg, M. Hada, 
 M. Ehara, K. Toyota, R. Fukuda, J. Hasegawa, M. Ishida, T. Nakajima, 
 Y. Honda, O. Kitao, H. Nakai, T. Vreven, J. A. Montgomery, Jr., 
 J. E. Peralta, F. Ogliaro, M. Bearpark, J. J. Heyd, E. Brothers, 
 K. N. Kudin, V. N. Staroverov, R. Kobayashi, J. Normand, 
 K. Raghavachari, A. Rendell, J. C. Burant, S. S. Iyengar, J. Tomasi, 
 M. Cossi, N. Rega, J. M. Millam, M. Klene, J. E. Knox, J. B. Cross, 
 V. Bakken, C. Adamo, J. Jaramillo, R. Gomperts, R. E. Stratmann, 
 O. Yazyev, A. J. Austin, R. Cammi, C. Pomelli, J. W. Ochterski, 
 R. L. Martin, K. Morokuma, V. G. Zakrzewski, G. A. Voth, 
 P. Salvador, J. J. Dannenberg, S. Dapprich, A. D. Daniels, 
 O. Farkas, J. B. Foresman, J. V. Ortiz, J. Cioslowski, 
 and D. J. Fox, Gaussian, Inc., Wallingford CT, 2009.
 
 ******************************************
 Gaussian 09:  EM64L-G09RevA.02 11-Jun-2009
                29-May-2015 
 ******************************************
 %chk=oooo
 %mem=10GB
 %nproc=8
 Will use up to    8 processors via shared memory.
 ----------------------------
 # HF/6-311+G(2df,p) Opt Freq
 ----------------------------
 1/18=20,19=15,38=1/1,3;
 2/9=110,12=2,17=6,18=5,40=1/2;
 3/5=4,6=6,7=114,11=9,16=1,25=1,30=1,71=1/1,2,3;
 4//1;
 5/5=2,38=5/2;
 6/7=2,8=2,9=2,10=2,28=1/1;
 7//1,2,3,16;
 1/18=20,19=15/3(2);
 2/9=110/2;
 99//99;
 2/9=110/2;
 3/5=4,6=6,7=114,11=9,16=1,25=1,30=1,71=1/1,2,3;
 4/5=5,16=3/1;
 5/5=2,38=5/2;
 7//1,2,3,16;
 1/18=20,19=15/3(-5);
 2/9=110/2;
 6/7=2,8=2,9=2,10=2,19=2,28=1/1;
 99/9=1/99;
 -----
 title
 -----
 Symbolic Z-matrix:
 Charge =  0 Multiplicity = 1
 6                     3.51415   0.62145  -0.70732 
 8                     2.7259   -0.44267  -0.55022 
 6                     1.80876  -0.12705   0.38192 
 6                     2.01074   1.12036   0.82706 
 6                     3.14635   1.61803   0.10615 
 1                     4.29559   0.53173  -1.42965 
 1                     1.42596   1.62544   1.56483 
 1                     3.60589   2.57932   0.18848 
 6                    -1.907    -0.2374   -0.26928 
 8                    -1.66213   1.06517  -0.50387 
 6                    -2.75289   1.74492  -0.1468 
 6                    -3.70676   0.92272   0.30494 
 6                    -3.14281  -0.39348   0.22549 
 1                    -4.67906   1.19982   0.6512 
 1                    -3.59555  -1.32115   0.50133 
 1                    -2.7137    2.80517  -0.2688 
 7                     0.65725  -1.33471   0.87479 
 16                   -0.69928  -1.41639  -0.69402 
 1                     0.65054  -1.86779   1.72083 
 

 GradGradGradGradGradGradGradGradGradGradGradGradGradGradGradGradGradGrad
 Berny optimization.
 Initialization pass.
                           ----------------------------
                           !    Initial Parameters    !
                           ! (Angstroms and Degrees)  !
 --------------------------                            --------------------------
 ! Name  Definition              Value          Derivative Info.                !
 --------------------------------------------------------------------------------
 ! R1    R(1,2)                  1.3336         estimate D2E/DX2                !
 ! R2    R(1,5)                  1.338          estimate D2E/DX2                !
 ! R3    R(1,6)                  1.0679         estimate D2E/DX2                !
 ! R4    R(2,3)                  1.3452         estimate D2E/DX2                !
 ! R5    R(3,4)                  1.3398         estimate D2E/DX2                !
 ! R6    R(3,17)                 1.7399         estimate D2E/DX2                !
 ! R7    R(4,5)                  1.4342         estimate D2E/DX2                !
 ! R8    R(4,7)                  1.0684         estimate D2E/DX2                !
 ! R9    R(5,8)                  1.0687         estimate D2E/DX2                !
 ! R10   R(9,10)                 1.346          estimate D2E/DX2                !
 ! R11   R(9,13)                 1.3403         estimate D2E/DX2                !
 ! R12   R(9,18)                 1.7404         estimate D2E/DX2                !
 ! R13   R(10,11)                1.3339         estimate D2E/DX2                !
 ! R14   R(11,12)                1.3379         estimate D2E/DX2                !
 ! R15   R(11,16)                1.068          estimate D2E/DX2                !
 ! R16   R(12,13)                1.4341         estimate D2E/DX2                !
 ! R17   R(12,14)                1.0687         estimate D2E/DX2                !
 ! R18   R(13,15)                1.0685         estimate D2E/DX2                !
 ! R19   R(17,18)                2.0756         estimate D2E/DX2                !
 ! R20   R(17,19)                1.0            estimate D2E/DX2                !
 ! A1    A(2,1,5)              111.1152         estimate D2E/DX2                !
 ! A2    A(2,1,6)              116.4336         estimate D2E/DX2                !
 ! A3    A(5,1,6)              132.4511         estimate D2E/DX2                !
 ! A4    A(1,2,3)              107.3011         estimate D2E/DX2                !
 ! A5    A(2,3,4)              110.2362         estimate D2E/DX2                !
 ! A6    A(2,3,17)             118.989          estimate D2E/DX2                !
 ! A7    A(4,3,17)             130.6848         estimate D2E/DX2                !
 ! A8    A(3,4,5)              105.9883         estimate D2E/DX2                !
 ! A9    A(3,4,7)              125.9512         estimate D2E/DX2                !
 ! A10   A(5,4,7)              128.0585         estimate D2E/DX2                !
 ! A11   A(1,5,4)              105.3553         estimate D2E/DX2                !
 ! A12   A(1,5,8)              126.7721         estimate D2E/DX2                !
 ! A13   A(4,5,8)              127.8718         estimate D2E/DX2                !
 ! A14   A(10,9,13)            110.168          estimate D2E/DX2                !
 ! A15   A(10,9,18)            119.1303         estimate D2E/DX2                !
 ! A16   A(13,9,18)            130.6199         estimate D2E/DX2                !
 ! A17   A(9,10,11)            107.3218         estimate D2E/DX2                !
 ! A18   A(10,11,12)           111.1137         estimate D2E/DX2                !
 ! A19   A(10,11,16)           116.4441         estimate D2E/DX2                !
 ! A20   A(12,11,16)           132.442          estimate D2E/DX2                !
 ! A21   A(11,12,13)           105.3638         estimate D2E/DX2                !
 ! A22   A(11,12,14)           126.7784         estimate D2E/DX2                !
 ! A23   A(13,12,14)           127.8577         estimate D2E/DX2                !
 ! A24   A(9,13,12)            106.0308         estimate D2E/DX2                !
 ! A25   A(9,13,15)            125.9514         estimate D2E/DX2                !
 ! A26   A(12,13,15)           128.0175         estimate D2E/DX2                !
 ! A27   A(3,17,18)            104.2258         estimate D2E/DX2                !
 ! A28   A(3,17,19)            127.8871         estimate D2E/DX2                !
 ! A29   A(18,17,19)           127.8871         estimate D2E/DX2                !
 ! A30   A(9,18,17)            104.0289         estimate D2E/DX2                !
 ! D1    D(5,1,2,3)              0.6589         estimate D2E/DX2                !
 ! D2    D(6,1,2,3)           -179.3775         estimate D2E/DX2                !
 ! D3    D(2,1,5,4)             -0.5474         estimate D2E/DX2                !
 ! D4    D(2,1,5,8)            179.7669         estimate D2E/DX2                !
 ! D5    D(6,1,5,4)            179.4968         estimate D2E/DX2                !
 ! D6    D(6,1,5,8)             -0.1889         estimate D2E/DX2                !
 ! D7    D(1,2,3,4)             -0.4988         estimate D2E/DX2                !
 ! D8    D(1,2,3,17)          -177.4125         estimate D2E/DX2                !
 ! D9    D(2,3,4,5)              0.165          estimate D2E/DX2                !
 ! D10   D(2,3,4,7)            179.6859         estimate D2E/DX2                !
 ! D11   D(17,3,4,5)           176.6043         estimate D2E/DX2                !
 ! D12   D(17,3,4,7)            -3.8748         estimate D2E/DX2                !
 ! D13   D(2,3,17,18)          -75.9052         estimate D2E/DX2                !
 ! D14   D(2,3,17,19)          104.0948         estimate D2E/DX2                !
 ! D15   D(4,3,17,18)          107.9146         estimate D2E/DX2                !
 ! D16   D(4,3,17,19)          -72.0854         estimate D2E/DX2                !
 ! D17   D(3,4,5,1)              0.227          estimate D2E/DX2                !
 ! D18   D(3,4,5,8)            179.908          estimate D2E/DX2                !
 ! D19   D(7,4,5,1)           -179.2804         estimate D2E/DX2                !
 ! D20   D(7,4,5,8)              0.4006         estimate D2E/DX2                !
 ! D21   D(13,9,10,11)           0.3402         estimate D2E/DX2                !
 ! D22   D(18,9,10,11)         177.3943         estimate D2E/DX2                !
 ! D23   D(10,9,13,12)          -0.1022         estimate D2E/DX2                !
 ! D24   D(10,9,13,15)        -179.9322         estimate D2E/DX2                !
 ! D25   D(18,9,13,12)        -176.7114         estimate D2E/DX2                !
 ! D26   D(18,9,13,15)           3.4585         estimate D2E/DX2                !
 ! D27   D(10,9,18,17)          80.268          estimate D2E/DX2                !
 ! D28   D(13,9,18,17)        -103.376          estimate D2E/DX2                !
 ! D29   D(9,10,11,12)          -0.4611         estimate D2E/DX2                !
 ! D30   D(9,10,11,16)         179.6703         estimate D2E/DX2                !
 ! D31   D(10,11,12,13)          0.3908         estimate D2E/DX2                !
 ! D32   D(10,11,12,14)       -179.7258         estimate D2E/DX2                !
 ! D33   D(16,11,12,13)       -179.7686         estimate D2E/DX2                !
 ! D34   D(16,11,12,14)          0.1148         estimate D2E/DX2                !
 ! D35   D(11,12,13,9)          -0.1715         estimate D2E/DX2                !
 ! D36   D(11,12,13,15)        179.6539         estimate D2E/DX2                !
 ! D37   D(14,12,13,9)         179.9468         estimate D2E/DX2                !
 ! D38   D(14,12,13,15)         -0.2278         estimate D2E/DX2                !
 ! D39   D(3,17,18,9)          -89.9159         estimate D2E/DX2                !
 ! D40   D(19,17,18,9)          90.0841         estimate D2E/DX2                !
 --------------------------------------------------------------------------------
 Trust Radius=3.00D-01 FncErr=1.00D-07 GrdErr=1.00D-07
 Number of steps in this run= 100 maximum allowed number of steps= 114.
 GradGradGradGradGradGradGradGradGradGradGradGradGradGradGradGradGradGrad

                          Input orientation:                          
 ---------------------------------------------------------------------
 Center     Atomic      Atomic             Coordinates (Angstroms)
 Number     Number       Type             X           Y           Z
 ---------------------------------------------------------------------
      1          6           0        3.514146    0.621452   -0.707320
      2          8           0        2.725904   -0.442671   -0.550219
      3          6           0        1.808761   -0.127046    0.381920
      4          6           0        2.010743    1.120356    0.827059
      5          6           0        3.146348    1.618027    0.106148
      6          1           0        4.295592    0.531728   -1.429647
      7          1           0        1.425960    1.625438    1.564829
      8          1           0        3.605893    2.579315    0.188477
      9          6           0       -1.906998   -0.237398   -0.269283
     10          8           0       -1.662131    1.065168   -0.503867
     11          6           0       -2.752892    1.744916   -0.146801
     12          6           0       -3.706759    0.922717    0.304944
     13          6           0       -3.142814   -0.393477    0.225493
     14          1           0       -4.679059    1.199824    0.651196
     15          1           0       -3.595553   -1.321148    0.501329
     16          1           0       -2.713702    2.805170   -0.268797
     17          7           0        0.657251   -1.334712    0.874794
     18         16           0       -0.699284   -1.416387   -0.694023
     19          1           0        0.650537   -1.867793    1.720832
 ---------------------------------------------------------------------
                    Distance matrix (angstroms):
                    1          2          3          4          5
     1  C    0.000000
     2  O    1.333553   0.000000
     3  C    2.157552   1.345234   0.000000
     4  C    2.205322   2.202590   1.339760   0.000000
     5  C    1.337971   2.203195   2.215958   1.434220   0.000000
     6  H    1.067925   2.046159   3.146440   3.264926   2.204421
     7  H    3.245176   3.231154   2.148723   1.068356   2.255558
     8  H    2.155017   3.233025   3.254457   2.254075   1.068660
     9  C    5.506206   4.645949   3.774004   4.288841   5.396282
    10  O    5.199242   4.640105   3.775326   3.906970   4.878447
    11  C    6.391566   5.913162   4.959079   4.902111   5.906024
    12  C    7.297733   6.631345   5.615059   5.744693   6.891157
    13  C    6.798186   5.919966   4.961204   5.404879   6.604086
    14  H    8.325184   7.679496   6.627586   6.692585   7.855505
    15  H    7.468758   6.468253   5.535950   6.123528   7.365334
    16  H    6.614153   6.341686   5.428996   5.134187   5.990833
    17  N    3.806772   2.665656   1.739930   2.803851   3.937650
    18  S    4.680380   3.563806   3.018335   4.011608   4.963550
    19  H    4.504721   3.390544   2.482814   3.402649   4.581181
                    6          7          8          9         10
     6  H    0.000000
     7  H    4.289275   0.000000
     8  H    2.699374   2.748879   0.000000
     9  C    6.356896   4.235886   6.207687   0.000000
    10  O    6.052775   3.758951   5.524858   1.345982   0.000000
    11  C    7.266268   4.517384   6.422054   2.158728   1.333909
    12  C    8.197518   5.331597   7.498851   2.216922   2.203400
    13  C    7.676287   5.171415   7.374545   1.340300   2.202733
    14  H    9.236916   6.187659   8.411750   3.255336   3.233289
    15  H    8.332586   5.918530   8.195872   2.149320   3.231570
    16  H    7.459646   4.678756   6.340141   3.147696   2.046623
    17  N    4.693780   3.135211   4.948245   3.014695   3.611047
    18  S    5.411569   4.344165   5.939612   1.740400   2.668586
    19  H    5.382345   3.581659   5.555088   3.627634   4.347411
                   11         12         13         14         15
    11  C    0.000000
    12  C    1.337889   0.000000
    13  C    2.205304   1.434124   0.000000
    14  H    2.155004   1.068666   2.253859   0.000000
    15  H    3.245135   2.255186   1.068472   2.748044   0.000000
    16  H    1.067969   2.204307   3.264935   2.699287   4.289202
    17  N    4.707105   4.946241   3.968376   5.911859   4.269192
    18  S    3.809277   3.938813   2.804049   4.949018   3.134695
    19  H    5.303117   5.364487   4.335800   6.241714   4.451437
                   16         17         18         19
    16  H    0.000000
    17  N    5.459830   0.000000
    18  S    4.696833   2.075583   0.000000
    19  H    6.092070   1.000000   2.803089   0.000000
 Stoichiometry    C8H7NO2S
 Framework group  C1[X(C8H7NO2S)]
 Deg. of freedom    51
 Full point group                 C1      NOp   1
 Largest Abelian subgroup         C1      NOp   1
 Largest concise Abelian subgroup C1      NOp   1
                         Standard orientation:                         
 ---------------------------------------------------------------------
 Center     Atomic      Atomic             Coordinates (Angstroms)
 Number     Number       Type             X           Y           Z
 ---------------------------------------------------------------------
      1          6           0        3.583445    0.399685   -0.648751
      2          8           0        2.776122   -0.634444   -0.409651
      3          6           0        1.856812   -0.226140    0.483552
      4          6           0        2.076127    1.051122    0.823344
      5          6           0        3.225832    1.467483    0.073805
      6          1           0        4.369168    0.236426   -1.353344
      7          1           0        1.493905    1.626332    1.510028
      8          1           0        3.700820    2.424769    0.078818
      9          6           0       -1.854812   -0.331534   -0.191613
     10          8           0       -1.586114    0.942318   -0.533330
     11          6           0       -2.668158    1.667380   -0.245619
     12          6           0       -3.639418    0.901938    0.264970
     13          6           0       -3.097100   -0.425156    0.302716
     14          1           0       -4.609719    1.223040    0.577151
     15          1           0       -3.567654   -1.318667    0.651782
     16          1           0       -2.610108    2.712689   -0.456607
     17          7           0        0.681111   -1.368938    1.065874
     18         16           0       -0.663693   -1.561597   -0.503340
     19          1           0        0.658475   -1.828128    1.953923
 ---------------------------------------------------------------------
 Rotational constants (GHZ):      1.7135596      0.4623544      0.3981037
 Standard basis: 6-311+G(2df,p) (5D, 7F)
 There are   458 symmetry adapted basis functions of A   symmetry.
 Integral buffers will be    131072 words long.
 Raffenetti 1 integral format.
 Two-electron integral symmetry is turned on.
   458 basis functions,   694 primitive gaussians,   518 cartesian basis functions
    47 alpha electrons       47 beta electrons
       nuclear repulsion energy       732.2405428150 Hartrees.
 NAtoms=   19 NActive=   19 NUniq=   19 SFac= 7.50D-01 NAtFMM=   80 NAOKFM=F Big=F
 One-electron integrals computed using PRISM.
 NBasis=   458 RedAO= T  NBF=   458
 NBsUse=   458 1.00D-06 NBFU=   458
 Harris functional with IExCor=  205 diagonalized for initial guess.
 ExpMin= 4.05D-02 ExpMax= 9.34D+04 ExpMxC= 3.17D+03 IAcc=2 IRadAn=         0 AccDes= 0.00D+00
 HarFok:  IExCor=  205 AccDes= 0.00D+00 IRadAn=         0 IDoV= 1
 ScaDFX=  1.000000  1.000000  1.000000  1.000000
 FoFCou: FMM=F IPFlag=           0 FMFlag=      100000 FMFlg1=           0
         NFxFlg=           0 DoJE=T BraDBF=F KetDBF=T FulRan=T
         Omega=  0.000000  0.000000  1.000000  0.000000  0.000000 ICntrl=     500 IOpCl=  0
         NMat0=    1 NMatS0=    1 NMatT0=    0 NMatD0=    1 NMtDS0=    0 NMtDT0=    0
         I1Cent=           4 NGrid=           0.
 Petite list used in FoFCou.
 Initial guess orbital symmetries:
       Occupied  (A) (A) (A) (A) (A) (A) (A) (A) (A) (A) (A) (A)
                 (A) (A) (A) (A) (A) (A) (A) (A) (A) (A) (A) (A)
                 (A) (A) (A) (A) (A) (A) (A) (A) (A) (A) (A) (A)
                 (A) (A) (A) (A) (A) (A) (A) (A) (A) (A) (A)
       Virtual   (A) (A) (A) (A) (A) (A) (A) (A) (A) (A) (A) (A)
                 (A) (A) (A) (A) (A) (A) (A) (A) (A) (A) (A) (A)
                 (A) (A) (A) (A) (A) (A) (A) (A) (A) (A) (A) (A)
                 (A) (A) (A) (A) (A) (A) (A) (A) (A) (A) (A) (A)
                 (A) (A) (A) (A) (A) (A) (A) (A) (A) (A) (A) (A)
                 (A) (A) (A) (A) (A) (A) (A) (A) (A) (A) (A) (A)
                 (A) (A) (A) (A) (A) (A) (A) (A) (A) (A) (A) (A)
                 (A) (A) (A) (A) (A) (A) (A) (A) (A) (A) (A) (A)
                 (A) (A) (A) (A) (A) (A) (A) (A) (A) (A) (A) (A)
                 (A) (A) (A) (A) (A) (A) (A) (A) (A) (A) (A) (A)
                 (A) (A) (A) (A) (A) (A) (A) (A) (A) (A) (A) (A)
                 (A) (A) (A) (A) (A) (A) (A) (A) (A) (A) (A) (A)
                 (A) (A) (A) (A) (A) (A) (A) (A) (A) (A) (A) (A)
                 (A) (A) (A) (A) (A) (A) (A) (A) (A) (A) (A) (A)
                 (A) (A) (A) (A) (A) (A) (A) (A) (A) (A) (A) (A)
                 (A) (A) (A) (A) (A) (A) (A) (A) (A) (A) (A) (A)
                 (A) (A) (A) (A) (A) (A) (A) (A) (A) (A) (A) (A)
                 (A) (A) (A) (A) (A) (A) (A) (A) (A) (A) (A) (A)
                 (A) (A) (A) (A) (A) (A) (A) (A) (A) (A) (A) (A)
                 (A) (A) (A) (A) (A) (A) (A) (A) (A) (A) (A) (A)
                 (A) (A) (A) (A) (A) (A) (A) (A) (A) (A) (A) (A)
                 (A) (A) (A) (A) (A) (A) (A) (A) (A) (A) (A) (A)
                 (A) (A) (A) (A) (A) (A) (A) (A) (A) (A) (A) (A)
                 (A) (A) (A) (A) (A) (A) (A) (A) (A) (A) (A) (A)
                 (A) (A) (A) (A) (A) (A) (A) (A) (A) (A) (A) (A)
                 (A) (A) (A) (A) (A) (A) (A) (A) (A) (A) (A) (A)
                 (A) (A) (A) (A) (A) (A) (A) (A) (A) (A) (A) (A)
                 (A) (A) (A) (A) (A) (A) (A) (A) (A) (A) (A) (A)
                 (A) (A) (A) (A) (A) (A) (A) (A) (A) (A) (A) (A)
                 (A) (A) (A) (A) (A) (A) (A) (A) (A) (A) (A) (A)
                 (A) (A) (A) (A) (A) (A) (A) (A) (A) (A) (A) (A)
                 (A) (A) (A) (A) (A) (A) (A) (A) (A) (A) (A) (A)
                 (A) (A) (A) (A) (A) (A) (A) (A) (A) (A) (A) (A)
                 (A) (A) (A) (A) (A) (A) (A) (A) (A) (A) (A) (A)
                 (A) (A) (A)
 The electronic state of the initial guess is 1-A.
 Requested convergence on RMS density matrix=1.00D-08 within 128 cycles.
 Requested convergence on MAX density matrix=1.00D-06.
 Requested convergence on             energy=1.00D-06.
 No special actions if energy rises.
 Initial convergence to 1.0D-05 achieved.  Increase integral accuracy.
 SCF Done:  E(RHF) =  -908.691800129     A.U. after   17 cycles
             Convg  =    0.4636D-08             -V/T =  2.0010

 **********************************************************************

            Population analysis using the SCF density.

 **********************************************************************

 Orbital symmetries:
       Occupied  (A) (A) (A) (A) (A) (A) (A) (A) (A) (A) (A) (A)
                 (A) (A) (A) (A) (A) (A) (A) (A) (A) (A) (A) (A)
                 (A) (A) (A) (A) (A) (A) (A) (A) (A) (A) (A) (A)
                 (A) (A) (A) (A) (A) (A) (A) (A) (A) (A) (A)
       Virtual   (A) (A) (A) (A) (A) (A) (A) (A) (A) (A) (A) (A)
                 (A) (A) (A) (A) (A) (A) (A) (A) (A) (A) (A) (A)
                 (A) (A) (A) (A) (A) (A) (A) (A) (A) (A) (A) (A)
                 (A) (A) (A) (A) (A) (A) (A) (A) (A) (A) (A) (A)
                 (A) (A) (A) (A) (A) (A) (A) (A) (A) (A) (A) (A)
                 (A) (A) (A) (A) (A) (A) (A) (A) (A) (A) (A) (A)
                 (A) (A) (A) (A) (A) (A) (A) (A) (A) (A) (A) (A)
                 (A) (A) (A) (A) (A) (A) (A) (A) (A) (A) (A) (A)
                 (A) (A) (A) (A) (A) (A) (A) (A) (A) (A) (A) (A)
                 (A) (A) (A) (A) (A) (A) (A) (A) (A) (A) (A) (A)
                 (A) (A) (A) (A) (A) (A) (A) (A) (A) (A) (A) (A)
                 (A) (A) (A) (A) (A) (A) (A) (A) (A) (A) (A) (A)
                 (A) (A) (A) (A) (A) (A) (A) (A) (A) (A) (A) (A)
                 (A) (A) (A) (A) (A) (A) (A) (A) (A) (A) (A) (A)
                 (A) (A) (A) (A) (A) (A) (A) (A) (A) (A) (A) (A)
                 (A) (A) (A) (A) (A) (A) (A) (A) (A) (A) (A) (A)
                 (A) (A) (A) (A) (A) (A) (A) (A) (A) (A) (A) (A)
                 (A) (A) (A) (A) (A) (A) (A) (A) (A) (A) (A) (A)
                 (A) (A) (A) (A) (A) (A) (A) (A) (A) (A) (A) (A)
                 (A) (A) (A) (A) (A) (A) (A) (A) (A) (A) (A) (A)
                 (A) (A) (A) (A) (A) (A) (A) (A) (A) (A) (A) (A)
                 (A) (A) (A) (A) (A) (A) (A) (A) (A) (A) (A) (A)
                 (A) (A) (A) (A) (A) (A) (A) (A) (A) (A) (A) (A)
                 (A) (A) (A) (A) (A) (A) (A) (A) (A) (A) (A) (A)
                 (A) (A) (A) (A) (A) (A) (A) (A) (A) (A) (A) (A)
                 (A) (A) (A) (A) (A) (A) (A) (A) (A) (A) (A) (A)
                 (A) (A) (A) (A) (A) (A) (A) (A) (A) (A) (A) (A)
                 (A) (A) (A) (A) (A) (A) (A) (A) (A) (A) (A) (A)
                 (A) (A) (A) (A) (A) (A) (A) (A) (A) (A) (A) (A)
                 (A) (A) (A) (A) (A) (A) (A) (A) (A) (A) (A) (A)
                 (A) (A) (A) (A) (A) (A) (A) (A) (A) (A) (A) (A)
                 (A) (A) (A) (A) (A) (A) (A) (A) (A) (A) (A) (A)
                 (A) (A) (A) (A) (A) (A) (A) (A) (A) (A) (A) (A)
                 (A) (A) (A) (A) (A) (A) (A) (A) (A) (A) (A) (A)
                 (A) (A) (A)
 The electronic state is 1-A.
 Alpha  occ. eigenvalues --  -92.00846 -20.63437 -20.62622 -15.59323 -11.33899
 Alpha  occ. eigenvalues --  -11.31164 -11.30137 -11.28144 -11.24845 -11.23683
 Alpha  occ. eigenvalues --  -11.22553 -11.22376  -9.00291  -6.68417  -6.68330
 Alpha  occ. eigenvalues --   -6.68228  -1.49056  -1.47960  -1.11099  -1.10046
 Alpha  occ. eigenvalues --   -1.08712  -1.05072  -0.99151  -0.92242  -0.83308
 Alpha  occ. eigenvalues --   -0.81710  -0.77872  -0.76677  -0.72317  -0.72117
 Alpha  occ. eigenvalues --   -0.66237  -0.64956  -0.61813  -0.60436  -0.58962
 Alpha  occ. eigenvalues --   -0.58178  -0.57188  -0.56762  -0.55156  -0.52714
 Alpha  occ. eigenvalues --   -0.47115  -0.41198  -0.39939  -0.39156  -0.38428
 Alpha  occ. eigenvalues --   -0.33783  -0.31653
 Alpha virt. eigenvalues --    0.04417   0.05866   0.06942   0.07450   0.08185
 Alpha virt. eigenvalues --    0.08582   0.09380   0.09936   0.10406   0.10845
 Alpha virt. eigenvalues --    0.11723   0.12028   0.12778   0.13463   0.13774
 Alpha virt. eigenvalues --    0.14244   0.14638   0.15269   0.15695   0.16376
 Alpha virt. eigenvalues --    0.17304   0.18365   0.18551   0.18989   0.19229
 Alpha virt. eigenvalues --    0.20178   0.20867   0.21225   0.22188   0.22262
 Alpha virt. eigenvalues --    0.22852   0.23680   0.24780   0.25135   0.25274
 Alpha virt. eigenvalues --    0.26274   0.26418   0.27486   0.27679   0.27917
 Alpha virt. eigenvalues --    0.28955   0.29226   0.29886   0.31040   0.31261
 Alpha virt. eigenvalues --    0.31858   0.32498   0.32607   0.33484   0.34480
 Alpha virt. eigenvalues --    0.34869   0.36996   0.37499   0.37841   0.38807
 Alpha virt. eigenvalues --    0.39179   0.39712   0.41333   0.42037   0.42601
 Alpha virt. eigenvalues --    0.42790   0.44171   0.45278   0.46097   0.46864
 Alpha virt. eigenvalues --    0.48576   0.49012   0.50938   0.52801   0.54754
 Alpha virt. eigenvalues --    0.55962   0.60230   0.60960   0.61898   0.61966
 Alpha virt. eigenvalues --    0.62897   0.63710   0.65300   0.67137   0.67633
 Alpha virt. eigenvalues --    0.68118   0.68369   0.69832   0.71579   0.73768
 Alpha virt. eigenvalues --    0.74804   0.75459   0.76777   0.77591   0.78125
 Alpha virt. eigenvalues --    0.79021   0.79468   0.80467   0.80861   0.81652
 Alpha virt. eigenvalues --    0.82476   0.83308   0.84146   0.86265   0.87776
 Alpha virt. eigenvalues --    0.88745   0.89661   0.90080   0.90844   0.90997
 Alpha virt. eigenvalues --    0.91867   0.92644   0.93723   0.94677   0.94918
 Alpha virt. eigenvalues --    0.95668   0.96268   0.97614   0.97790   0.99802
 Alpha virt. eigenvalues --    1.00112   1.01343   1.04193   1.05007   1.05601
 Alpha virt. eigenvalues --    1.06607   1.07406   1.09909   1.10952   1.11707
 Alpha virt. eigenvalues --    1.13021   1.13667   1.15331   1.16119   1.17908
 Alpha virt. eigenvalues --    1.18624   1.20351   1.21545   1.25113   1.26920
 Alpha virt. eigenvalues --    1.29572   1.31183   1.32129   1.34247   1.36918
 Alpha virt. eigenvalues --    1.37508   1.38550   1.39308   1.40825   1.41103
 Alpha virt. eigenvalues --    1.42558   1.43128   1.43902   1.46243   1.46906
 Alpha virt. eigenvalues --    1.47709   1.49379   1.50121   1.51015   1.54368
 Alpha virt. eigenvalues --    1.56381   1.58634   1.59778   1.60334   1.62021
 Alpha virt. eigenvalues --    1.62636   1.62994   1.64780   1.65515   1.66776
 Alpha virt. eigenvalues --    1.70826   1.71953   1.74779   1.76205   1.80098
 Alpha virt. eigenvalues --    1.81492   1.85075   1.88751   1.91207   1.92117
 Alpha virt. eigenvalues --    1.93911   1.95466   1.97389   1.98600   2.01050
 Alpha virt. eigenvalues --    2.02261   2.02863   2.04766   2.08511   2.11246
 Alpha virt. eigenvalues --    2.12678   2.14990   2.16507   2.18484   2.20902
 Alpha virt. eigenvalues --    2.22965   2.27626   2.31970   2.33155   2.35633
 Alpha virt. eigenvalues --    2.37624   2.38213   2.41138   2.42830   2.44183
 Alpha virt. eigenvalues --    2.49478   2.52114   2.56381   2.58162   2.58978
 Alpha virt. eigenvalues --    2.59606   2.61742   2.63331   2.66509   2.67807
 Alpha virt. eigenvalues --    2.71196   2.71989   2.73181   2.74097   2.76058
 Alpha virt. eigenvalues --    2.82373   2.83202   2.85329   2.85932   2.87782
 Alpha virt. eigenvalues --    2.89394   2.92222   2.93286   2.95918   2.96153
 Alpha virt. eigenvalues --    2.98169   3.00761   3.01622   3.02597   3.04384
 Alpha virt. eigenvalues --    3.05424   3.05531   3.06462   3.06998   3.07472
 Alpha virt. eigenvalues --    3.08717   3.10279   3.11084   3.13751   3.15352
 Alpha virt. eigenvalues --    3.17569   3.19564   3.20375   3.20709   3.21902
 Alpha virt. eigenvalues --    3.22364   3.23073   3.23999   3.24695   3.26986
 Alpha virt. eigenvalues --    3.29251   3.30029   3.31902   3.36070   3.38812
 Alpha virt. eigenvalues --    3.40612   3.41354   3.43220   3.44326   3.44535
 Alpha virt. eigenvalues --    3.45589   3.47145   3.50065   3.53076   3.54079
 Alpha virt. eigenvalues --    3.55336   3.56048   3.57584   3.58238   3.59748
 Alpha virt. eigenvalues --    3.60607   3.61211   3.61879   3.63184   3.63791
 Alpha virt. eigenvalues --    3.64429   3.65281   3.66532   3.68942   3.71327
 Alpha virt. eigenvalues --    3.72438   3.74394   3.76262   3.80264   3.81395
 Alpha virt. eigenvalues --    3.82425   3.83086   3.84089   3.85358   3.85662
 Alpha virt. eigenvalues --    3.86851   3.88427   3.90223   3.91371   3.93042
 Alpha virt. eigenvalues --    3.99466   3.99963   4.00344   4.01450   4.02331
 Alpha virt. eigenvalues --    4.02896   4.04767   4.05716   4.06925   4.07120
 Alpha virt. eigenvalues --    4.08473   4.10574   4.11599   4.13063   4.15827
 Alpha virt. eigenvalues --    4.16601   4.21219   4.22567   4.22658   4.25127
 Alpha virt. eigenvalues --    4.26758   4.27462   4.30643   4.33987   4.38140
 Alpha virt. eigenvalues --    4.39239   4.40806   4.44200   4.49536   4.51534
 Alpha virt. eigenvalues --    4.57486   4.58641   4.60073   4.66176   4.71567
 Alpha virt. eigenvalues --    4.75959   4.77128   4.77771   4.78908   4.79603
 Alpha virt. eigenvalues --    4.80985   4.87000   4.88608   4.92406   4.93512
 Alpha virt. eigenvalues --    4.95185   4.97496   4.98788   4.99915   5.06251
 Alpha virt. eigenvalues --    5.08969   5.12234   5.20598   5.26446   5.28104
 Alpha virt. eigenvalues --    5.35635   5.39015   5.40555   5.41709   5.51383
 Alpha virt. eigenvalues --    5.61061   5.61377   5.66498   5.68918   5.69553
 Alpha virt. eigenvalues --    5.71588   5.79080   5.80090   5.82323   5.87858
 Alpha virt. eigenvalues --    5.93513   5.94419   6.00519   6.00910   6.04872
 Alpha virt. eigenvalues --    6.14801   6.17259   6.27885   6.29419   6.31431
 Alpha virt. eigenvalues --    6.31742   6.32662   6.38642   6.41413   6.91080
 Alpha virt. eigenvalues --    6.94185   7.07334   7.08806   7.48856   7.48966
 Alpha virt. eigenvalues --    7.66915   7.67570   7.75324   7.76085   7.90601
 Alpha virt. eigenvalues --    7.91044   8.25638   8.26690   8.30370   8.32012
 Alpha virt. eigenvalues --    9.00077  18.48694  18.65272  18.93223  25.19275
 Alpha virt. eigenvalues --   25.20946  25.46391  25.46518  25.93853  25.94542
 Alpha virt. eigenvalues --   26.12362  26.13728  37.02388  51.79766  51.80804
 Alpha virt. eigenvalues --  192.80404
          Condensed to atoms (all electrons):
              1          2          3          4          5          6
     1  C    5.265009   0.139704  -0.255027   0.076866   0.417236   0.415648
     2  O    0.139704   7.934558   0.239154  -0.056869  -0.026548  -0.043812
     3  C   -0.255027   0.239154   5.821392  -0.080579   0.082558   0.030117
     4  C    0.076866  -0.056869  -0.080579   5.561775   0.110409  -0.019949
     5  C    0.417236  -0.026548   0.082558   0.110409   5.252016  -0.001099
     6  H    0.415648  -0.043812   0.030117  -0.019949  -0.001099   0.452965
     7  H   -0.002443   0.004218  -0.019917   0.397157  -0.001902   0.000006
     8  H   -0.004257   0.002880  -0.002634  -0.001153   0.384522  -0.001877
     9  C    0.008716  -0.011929  -0.008338   0.029584  -0.016489  -0.000077
    10  O   -0.000884   0.000651   0.052854  -0.025248  -0.000901  -0.000003
    11  C    0.005517  -0.000702  -0.024451   0.013871  -0.006318   0.000004
    12  C   -0.002165   0.000491   0.036356  -0.018841   0.001360  -0.000004
    13  C   -0.001832  -0.002159  -0.020412  -0.002750   0.005478   0.000028
    14  H    0.000000   0.000000  -0.000036   0.000009  -0.000006   0.000000
    15  H    0.000005  -0.000006  -0.000688   0.000183  -0.000020   0.000000
    16  H   -0.000001   0.000004  -0.000283   0.000343  -0.000106   0.000000
    17  N   -0.004858  -0.014766   0.134557   0.001687   0.035346  -0.000496
    18  S    0.004060  -0.000079  -0.253680   0.119058  -0.005214  -0.000030
    19  H    0.001503   0.001620   0.031772  -0.021031  -0.004177   0.000001
              7          8          9         10         11         12
     1  C   -0.002443  -0.004257   0.008716  -0.000884   0.005517  -0.002165
     2  O    0.004218   0.002880  -0.011929   0.000651  -0.000702   0.000491
     3  C   -0.019917  -0.002634  -0.008338   0.052854  -0.024451   0.036356
     4  C    0.397157  -0.001153   0.029584  -0.025248   0.013871  -0.018841
     5  C   -0.001902   0.384522  -0.016489  -0.000901  -0.006318   0.001360
     6  H    0.000006  -0.001877  -0.000077  -0.000003   0.000004  -0.000004
     7  H    0.472000  -0.002057  -0.000914  -0.000214   0.000470  -0.000452
     8  H   -0.002057   0.477832   0.000421  -0.000023  -0.000052   0.000015
     9  C   -0.000914   0.000421   6.087719   0.158109  -0.250434   0.092734
    10  O   -0.000214  -0.000023   0.158109   8.025843   0.156675  -0.008874
    11  C    0.000470  -0.000052  -0.250434   0.156675   5.138368   0.479084
    12  C   -0.000452   0.000015   0.092734  -0.008874   0.479084   5.226327
    13  C    0.000420  -0.000061  -0.380947  -0.003046   0.096196   0.105776
    14  H    0.000000   0.000000   0.008472   0.002655  -0.010201   0.389623
    15  H    0.000000   0.000000   0.006985   0.002258   0.000590  -0.007130
    16  H    0.000001   0.000000   0.028717  -0.042987   0.410886   0.007912
    17  N   -0.001028  -0.000442  -0.016241   0.005312   0.010777  -0.011319
    18  S    0.000949  -0.000390  -0.231401  -0.208145   0.018949  -0.093927
    19  H    0.000202   0.000000   0.004025  -0.000193   0.000623  -0.001087
             13         14         15         16         17         18
     1  C   -0.001832   0.000000   0.000005  -0.000001  -0.004858   0.004060
     2  O   -0.002159   0.000000  -0.000006   0.000004  -0.014766  -0.000079
     3  C   -0.020412  -0.000036  -0.000688  -0.000283   0.134557  -0.253680
     4  C   -0.002750   0.000009   0.000183   0.000343   0.001687   0.119058
     5  C    0.005478  -0.000006  -0.000020  -0.000106   0.035346  -0.005214
     6  H    0.000028   0.000000   0.000000   0.000000  -0.000496  -0.000030
     7  H    0.000420   0.000000   0.000000   0.000001  -0.001028   0.000949
     8  H   -0.000061   0.000000   0.000000   0.000000  -0.000442  -0.000390
     9  C   -0.380947   0.008472   0.006985   0.028717  -0.016241  -0.231401
    10  O   -0.003046   0.002655   0.002258  -0.042987   0.005312  -0.208145
    11  C    0.096196  -0.010201   0.000590   0.410886   0.010777   0.018949
    12  C    0.105776   0.389623  -0.007130   0.007912  -0.011319  -0.093927
    13  C    6.312748  -0.012597   0.384073  -0.024564  -0.007350  -0.135958
    14  H   -0.012597   0.469993  -0.001585  -0.001694   0.000031   0.002029
    15  H    0.384073  -0.001585   0.460188  -0.000051   0.000055  -0.013510
    16  H   -0.024564  -0.001694  -0.000051   0.444922  -0.000033   0.000177
    17  N   -0.007350   0.000031   0.000055  -0.000033   7.017991   0.172910
    18  S   -0.135958   0.002029  -0.013510   0.000177   0.172910  16.829594
    19  H   -0.002708   0.000000   0.000044   0.000000   0.309684  -0.016967
             19
     1  C    0.001503
     2  O    0.001620
     3  C    0.031772
     4  C   -0.021031
     5  C   -0.004177
     6  H    0.000001
     7  H    0.000202
     8  H    0.000000
     9  C    0.004025
    10  O   -0.000193
    11  C    0.000623
    12  C   -0.001087
    13  C   -0.002708
    14  H    0.000000
    15  H    0.000044
    16  H    0.000000
    17  N    0.309684
    18  S   -0.016967
    19  H    0.373254
 Mulliken atomic charges:
              1
     1  C   -0.062798
     2  O   -0.166412
     3  C    0.237284
     4  C   -0.084522
     5  C   -0.226145
     6  H    0.168576
     7  H    0.153503
     8  H    0.147274
     9  C    0.491288
    10  O   -0.113839
    11  C   -0.039852
    12  C   -0.195879
    13  C   -0.310335
    14  H    0.153305
    15  H    0.168609
    16  H    0.176756
    17  N   -0.631818
    18  S   -0.188427
    19  H    0.323433
 Sum of Mulliken atomic charges =   0.00000
 Mulliken charges with hydrogens summed into heavy atoms:
              1
     1  C    0.105779
     2  O   -0.166412
     3  C    0.237284
     4  C    0.068981
     5  C   -0.078872
     9  C    0.491288
    10  O   -0.113839
    11  C    0.136904
    12  C   -0.042575
    13  C   -0.141726
    17  N   -0.308385
    18  S   -0.188427
 Sum of Mulliken charges with hydrogens summed into heavy atoms =   0.00000
 Electronic spatial extent (au):  <R**2>=           2720.4962
 Charge=              0.0000 electrons
 Dipole moment (field-independent basis, Debye):
    X=             -1.7534    Y=              2.1567    Z=              0.9206  Tot=              2.9281
 Quadrupole moment (field-independent basis, Debye-Ang):
   XX=            -63.3724   YY=            -71.7447   ZZ=            -75.6627
   XY=              1.6071   XZ=             -3.9867   YZ=             -1.7107
 Traceless Quadrupole moment (field-independent basis, Debye-Ang):
   XX=              6.8876   YY=             -1.4848   ZZ=             -5.4028
   XY=              1.6071   XZ=             -3.9867   YZ=             -1.7107
 Octapole moment (field-independent basis, Debye-Ang**2):
  XXX=            -14.8802  YYY=             20.8603  ZZZ=              1.5570  XYY=             -6.9849
  XXY=             19.8596  XXZ=             -8.4786  XZZ=              7.6420  YZZ=             -9.5921
  YYZ=              5.3877  XYZ=              1.8905
 Hexadecapole moment (field-independent basis, Debye-Ang**3):
 XXXX=          -2526.9424 YYYY=           -658.9273 ZZZZ=           -230.7510 XXXY=              3.1932
 XXXZ=           -153.3982 YYYX=            -23.4052 YYYZ=            -14.6241 ZZZX=             -3.3291
 ZZZY=            -17.1148 XXYY=           -527.5759 XXZZ=           -512.9120 YYZZ=           -142.2655
 XXYZ=             -9.0796 YYXZ=             10.4594 ZZXY=             -5.6278
 N-N= 7.322405428150D+02 E-N=-3.608424513319D+03  KE= 9.077459889837D+02
 Calling FoFJK, ICntrl=      2127 FMM=F ISym2X=0 I1Cent= 0 IOpClX= 0 NMat=1 NMatS=1 NMatT=0.
 ***** Axes restored to original set *****
 -------------------------------------------------------------------
 Center     Atomic                   Forces (Hartrees/Bohr)
 Number     Number              X              Y              Z
 -------------------------------------------------------------------
      1        6           0.002858234    0.007533942    0.001352898
      2        8          -0.020929023   -0.014956103    0.010999224
      3        6          -0.048727465   -0.073188463    0.042223652
      4        6          -0.013164460   -0.007453259    0.006283232
      5        6           0.000698884   -0.004393926   -0.004825394
      6        1          -0.000732499   -0.000640533   -0.000198087
      7        1           0.000465604   -0.000444851    0.000118269
      8        1          -0.000473054    0.000141157    0.000088705
      9        6           0.012959157   -0.007925197   -0.001003495
     10        8          -0.002920035    0.004325154    0.001099297
     11        6           0.005406108   -0.002081952   -0.001925486
     12        6          -0.001929738   -0.003455373    0.001037614
     13        6          -0.004213929    0.002407803    0.001475895
     14        1          -0.000027237   -0.000030273   -0.000062152
     15        1           0.000184301    0.000022764    0.000006074
     16        1          -0.000111162    0.000092467   -0.000110533
     17        7           0.025048808    0.096924137   -0.125297759
     18       16           0.044612967   -0.000547107    0.072500317
     19        1           0.000994538    0.003669611   -0.003762270
 -------------------------------------------------------------------
 Cartesian Forces:  Max     0.125297759 RMS     0.027787754

 GradGradGradGradGradGradGradGradGradGradGradGradGradGradGradGradGradGrad
 Berny optimization.
 Internal  Forces:  Max     0.133652192 RMS     0.018027004
 Search for a local minimum.
 Step number   1 out of a maximum of  100
 All quantities printed in internal units (Hartrees-Bohrs-Radians)
 Mixed Optimization -- RFO/linear search
 Second derivative matrix not updated -- first step.
     Eigenvalues ---    0.00230   0.00230   0.00230   0.01159   0.01649
     Eigenvalues ---    0.02028   0.02107   0.02273   0.02323   0.02325
     Eigenvalues ---    0.02456   0.02513   0.02669   0.02673   0.02829
     Eigenvalues ---    0.02829   0.12539   0.15999   0.16000   0.16000
     Eigenvalues ---    0.16000   0.16000   0.16000   0.16000   0.16218
     Eigenvalues ---    0.22000   0.22202   0.22202   0.24050   0.24053
     Eigenvalues ---    0.24956   0.24960   0.25000   0.31436   0.37399
     Eigenvalues ---    0.37400   0.37424   0.37439   0.37488   0.37494
     Eigenvalues ---    0.38530   0.38540   0.47688   0.48999   0.49051
     Eigenvalues ---    0.53268   0.53387   0.57262   0.57298   0.57720
     Eigenvalues ---    0.578201000.000001000.000001000.000001000.00000
     Eigenvalues --- 1000.000001000.000001000.000001000.000001000.00000
     Eigenvalues --- 1000.000001000.000001000.000001000.000001000.00000
     Eigenvalues --- 1000.000001000.000001000.000001000.000001000.00000
     Eigenvalues --- 1000.000001000.000001000.000001000.000001000.00000
     Eigenvalues --- 1000.000001000.000001000.000001000.000001000.00000
     Eigenvalues --- 1000.000001000.000001000.000001000.000001000.00000
     Eigenvalues --- 1000.000001000.000001000.000001000.000001000.00000
 RFO step:  Lambda=-1.09240474D-01 EMin= 2.30000000D-03
 Linear search not attempted -- first point.
 Maximum step size (   0.300) exceeded in Quadratic search.
    -- Step size scaled by   0.465
 Iteration  1 RMS(Cart)=  0.05466258 RMS(Int)=  0.00326081
 Iteration  2 RMS(Cart)=  0.00728164 RMS(Int)=  0.00001775
 Iteration  3 RMS(Cart)=  0.00001311 RMS(Int)=  0.00001512
 Iteration  4 RMS(Cart)=  0.00000000 RMS(Int)=  0.00001512
 Variable       Old X    -DE/DX   Delta X   Delta X   Delta X     New X
                                 (Linear)    (Quad)   (Total)
    R1        2.52005   0.00541   0.00000   0.00379   0.00378   2.52383
    R2        2.52840  -0.00105   0.00000   0.00009   0.00006   2.52846
    R3        2.01809  -0.00035   0.00000  -0.00033  -0.00033   2.01775
    R4        2.54212  -0.01909   0.00000  -0.01399  -0.01396   2.52816
    R5        2.53178  -0.01128   0.00000  -0.00833  -0.00830   2.52348
    R6        3.28799  -0.13365   0.00000  -0.22919  -0.22919   3.05880
    R7        2.71028   0.00167   0.00000   0.00195   0.00195   2.71223
    R8        2.01890  -0.00038   0.00000  -0.00037  -0.00037   2.01853
    R9        2.01947  -0.00007   0.00000  -0.00007  -0.00007   2.01941
   R10        2.54354   0.00143   0.00000   0.00103   0.00103   2.54456
   R11        2.53280   0.00349   0.00000   0.00253   0.00253   2.53533
   R12        3.28888  -0.01086   0.00000  -0.01193  -0.01193   3.27694
   R13        2.52072  -0.00370   0.00000  -0.00260  -0.00260   2.51812
   R14        2.52824   0.00282   0.00000   0.00180   0.00180   2.53004
   R15        2.01817   0.00010   0.00000   0.00010   0.00010   2.01827
   R16        2.71010  -0.00284   0.00000  -0.00250  -0.00250   2.70761
   R17        2.01949   0.00000   0.00000   0.00000   0.00000   2.01948
   R18        2.01912  -0.00010   0.00000  -0.00009  -0.00009   2.01903
   R19        3.92228  -0.09017   0.00000  -0.17888  -0.17888   3.74340
   R20        1.88973  -0.00515   0.00000  -0.00409  -0.00409   1.88564
    A1        1.93933  -0.00113   0.00000   0.00042   0.00038   1.93970
    A2        2.03215  -0.00030   0.00000  -0.00170  -0.00168   2.03047
    A3        2.31171   0.00143   0.00000   0.00128   0.00130   2.31301
    A4        1.87276  -0.00695   0.00000  -0.01005  -0.01004   1.86272
    A5        1.92398   0.01622   0.00000   0.01908   0.01912   1.94311
    A6        2.07675  -0.01533   0.00000  -0.01882  -0.01884   2.05790
    A7        2.28088  -0.00080   0.00000   0.00005   0.00002   2.28091
    A8        1.84984  -0.00821   0.00000  -0.01199  -0.01197   1.83787
    A9        2.19826   0.00401   0.00000   0.00582   0.00581   2.20407
   A10        2.23504   0.00420   0.00000   0.00615   0.00614   2.24118
   A11        1.83880   0.00008   0.00000   0.00255   0.00251   1.84131
   A12        2.21259   0.00038   0.00000  -0.00055  -0.00053   2.21206
   A13        2.23178  -0.00046   0.00000  -0.00199  -0.00198   2.22980
   A14        1.92279  -0.00075   0.00000  -0.00068  -0.00068   1.92211
   A15        2.07922   0.00156   0.00000   0.00187   0.00187   2.08109
   A16        2.27975  -0.00081   0.00000  -0.00120  -0.00120   2.27854
   A17        1.87312  -0.00029   0.00000  -0.00063  -0.00063   1.87249
   A18        1.93930   0.00150   0.00000   0.00168   0.00168   1.94098
   A19        2.03233  -0.00068   0.00000  -0.00071  -0.00072   2.03162
   A20        2.31155  -0.00082   0.00000  -0.00096  -0.00096   2.31059
   A21        1.83895  -0.00056   0.00000  -0.00090  -0.00090   1.83804
   A22        2.21270   0.00030   0.00000   0.00049   0.00049   2.21319
   A23        2.23154   0.00026   0.00000   0.00041   0.00041   2.23195
   A24        1.85059   0.00010   0.00000   0.00054   0.00054   1.85112
   A25        2.19827  -0.00019   0.00000  -0.00051  -0.00051   2.19775
   A26        2.23433   0.00009   0.00000  -0.00002  -0.00002   2.23430
   A27        1.81908   0.03401   0.00000   0.04809   0.04809   1.86717
   A28        2.23205  -0.01834   0.00000  -0.02634  -0.02634   2.20571
   A29        2.23205  -0.01568   0.00000  -0.02174  -0.02174   2.21031
   A30        1.81565  -0.01103   0.00000  -0.01429  -0.01429   1.80136
    D1        0.01150  -0.00004   0.00000  -0.00020  -0.00021   0.01129
    D2       -3.13073   0.00036   0.00000   0.00118   0.00117  -3.12955
    D3       -0.00955   0.00040   0.00000   0.00129   0.00129  -0.00826
    D4        3.13752   0.00031   0.00000   0.00117   0.00118   3.13870
    D5        3.13281  -0.00008   0.00000  -0.00038  -0.00039   3.13242
    D6       -0.00330  -0.00017   0.00000  -0.00050  -0.00050  -0.00380
    D7       -0.00871  -0.00046   0.00000  -0.00121  -0.00121  -0.00992
    D8       -3.09643  -0.00198   0.00000  -0.00676  -0.00674  -3.10317
    D9        0.00288   0.00071   0.00000   0.00199   0.00199   0.00487
   D10        3.13611  -0.00004   0.00000  -0.00068  -0.00069   3.13542
   D11        3.08233   0.00197   0.00000   0.00775   0.00779   3.09012
   D12       -0.06763   0.00123   0.00000   0.00507   0.00511  -0.06251
   D13       -1.32480   0.00119   0.00000   0.00378   0.00374  -1.32105
   D14        1.81680   0.00092   0.00000   0.00265   0.00262   1.81941
   D15        1.88346  -0.00114   0.00000  -0.00356  -0.00353   1.87993
   D16       -1.25813  -0.00141   0.00000  -0.00469  -0.00466  -1.26279
   D17        0.00396  -0.00063   0.00000  -0.00196  -0.00193   0.00203
   D18        3.13999  -0.00053   0.00000  -0.00182  -0.00181   3.13817
   D19       -3.12903   0.00014   0.00000   0.00080   0.00082  -3.12821
   D20        0.00699   0.00023   0.00000   0.00093   0.00094   0.00793
   D21        0.00594  -0.00016   0.00000  -0.00056  -0.00056   0.00538
   D22        3.09611  -0.00027   0.00000  -0.00085  -0.00085   3.09527
   D23       -0.00178   0.00016   0.00000   0.00054   0.00054  -0.00124
   D24       -3.14041   0.00005   0.00000   0.00014   0.00014  -3.14027
   D25       -3.08420   0.00020   0.00000   0.00075   0.00075  -3.08345
   D26        0.06036   0.00009   0.00000   0.00035   0.00035   0.06071
   D27        1.40094   0.00008   0.00000   0.00025   0.00025   1.40119
   D28       -1.80425  -0.00003   0.00000  -0.00005  -0.00005  -1.80431
   D29       -0.00805   0.00009   0.00000   0.00034   0.00034  -0.00770
   D30        3.13584   0.00014   0.00000   0.00049   0.00049   3.13633
   D31        0.00682   0.00000   0.00000  -0.00001  -0.00001   0.00681
   D32       -3.13681   0.00003   0.00000   0.00009   0.00009  -3.13672
   D33       -3.13755  -0.00005   0.00000  -0.00019  -0.00019  -3.13774
   D34        0.00200  -0.00003   0.00000  -0.00009  -0.00009   0.00191
   D35       -0.00299  -0.00009   0.00000  -0.00031  -0.00031  -0.00331
   D36        3.13555   0.00002   0.00000   0.00010   0.00010   3.13565
   D37        3.14066  -0.00011   0.00000  -0.00041  -0.00041   3.14025
   D38       -0.00398   0.00000   0.00000   0.00000   0.00000  -0.00398
   D39       -1.56933  -0.00133   0.00000  -0.00557  -0.00557  -1.57490
   D40        1.57226  -0.00106   0.00000  -0.00444  -0.00444   1.56783
         Item               Value     Threshold  Converged?
 Maximum Force            0.133652     0.000450     NO 
 RMS     Force            0.018027     0.000300     NO 
 Maximum Displacement     0.167793     0.001800     NO 
 RMS     Displacement     0.059885     0.001200     NO 
 Predicted change in Energy=-4.392887D-02
 GradGradGradGradGradGradGradGradGradGradGradGradGradGradGradGradGradGrad

                          Input orientation:                          
 ---------------------------------------------------------------------
 Center     Atomic      Atomic             Coordinates (Angstroms)
 Number     Number       Type             X           Y           Z
 ---------------------------------------------------------------------
      1          6           0        3.474769    0.588386   -0.680993
      2          8           0        2.674174   -0.470911   -0.537327
      3          6           0        1.749977   -0.134839    0.369725
      4          6           0        1.942013    1.106925    0.821778
      5          6           0        3.096947    1.590943    0.120494
      6          1           0        4.269776    0.489061   -1.386816
      7          1           0        1.342901    1.616151    1.544772
      8          1           0        3.561747    2.549192    0.208133
      9          6           0       -1.852525   -0.224626   -0.265916
     10          8           0       -1.631384    1.079320   -0.518805
     11          6           0       -2.726116    1.744899   -0.152461
     12          6           0       -3.661435    0.913920    0.324140
     13          6           0       -3.079110   -0.393159    0.250884
     14          1           0       -4.632319    1.180604    0.682340
     15          1           0       -3.513165   -1.324302    0.544306
     16          1           0       -2.705300    2.804174   -0.287257
     17          7           0        0.661054   -1.255224    0.792811
     18         16           0       -0.640260   -1.388034   -0.694803
     19          1           0        0.650200   -1.779001    1.642058
 ---------------------------------------------------------------------
                    Distance matrix (angstroms):
                    1          2          3          4          5
     1  C    0.000000
     2  O    1.335553   0.000000
     3  C    2.145221   1.337845   0.000000
     4  C    2.208290   2.207440   1.335368   0.000000
     5  C    1.338004   2.205156   2.203354   1.435251   0.000000
     6  H    1.067748   2.046735   3.134338   3.267739   2.204916
     7  H    3.248875   3.234695   2.147652   1.068160   2.259619
     8  H    2.154732   3.234891   3.242321   2.253936   1.068625
     9  C    5.404936   4.541511   3.659251   4.165888   5.286102
    10  O    5.132263   4.576176   3.700982   3.816686   4.798706
    11  C    6.329916   5.849877   4.882775   4.811193   5.831489
    12  C    7.213992   6.542158   5.512291   5.628812   6.795261
    13  C    6.692171   5.807546   4.837451   5.271418   6.488247
    14  H    8.242225   7.589462   6.523942   6.576224   7.760516
    15  H    7.347854   6.338878   5.398700   5.978865   7.236841
    16  H    6.577081   6.302972   5.377630   5.070319   5.941739
    17  N    3.672600   2.537137   1.618647   2.687275   3.806082
    18  S    4.565073   3.442584   2.901198   3.897817   4.848272
    19  H    4.356521   3.249198   2.351937   3.266529   4.433763
                    6          7          8          9         10
     6  H    0.000000
     7  H    4.293149   0.000000
     8  H    2.699871   2.753260   0.000000
     9  C    6.264849   4.108259   6.101895   0.000000
    10  O    5.993791   3.659633   5.445876   1.346525   0.000000
    11  C    7.214101   4.410677   6.349341   2.157559   1.332531
    12  C    8.124776   5.198698   7.406884   2.217343   2.204319
    13  C    7.580666   5.026496   7.263624   1.341640   2.203753
    14  H    9.165529   6.052830   8.321095   3.255935   3.233979
    15  H    8.221416   5.764424   8.072877   2.150227   3.232445
    16  H    7.431047   4.599528   6.291764   3.146634   2.045001
    17  N    4.562475   3.045514   4.819694   2.915667   3.525011
    18  S    5.301964   4.239546   5.828714   1.734085   2.664796
    19  H    5.236364   3.466461   5.409852   3.509996   4.247934
                   11         12         13         14         15
    11  C    0.000000
    12  C    1.338842   0.000000
    13  C    2.204220   1.432804   0.000000
    14  H    2.156139   1.068664   2.252852   0.000000
    15  H    3.244214   2.253907   1.068423   2.747019   0.000000
    16  H    1.068020   2.204781   3.263781   2.699907   4.288176
    17  N    4.622466   4.858884   3.876295   5.827972   4.182180
    18  S    3.802657   3.932523   2.798587   4.942768   3.129383
    19  H    5.199776   5.251564   4.214697   6.130687   4.329598
                   16         17         18         19
    16  H    0.000000
    17  N    5.383084   0.000000
    18  S    4.690958   1.980922   0.000000
    19  H    5.998926   0.997838   2.697973   0.000000
 Stoichiometry    C8H7NO2S
 Framework group  C1[X(C8H7NO2S)]
 Deg. of freedom    51
 Full point group                 C1      NOp   1
 Largest Abelian subgroup         C1      NOp   1
 Largest concise Abelian subgroup C1      NOp   1
                         Standard orientation:                         
 ---------------------------------------------------------------------
 Center     Atomic      Atomic             Coordinates (Angstroms)
 Number     Number       Type             X           Y           Z
 ---------------------------------------------------------------------
      1          6           0        3.533643    0.390842   -0.618560
      2          8           0        2.724107   -0.643828   -0.378117
      3          6           0        1.792742   -0.212676    0.480076
      4          6           0        1.988741    1.067110    0.807092
      5          6           0        3.154436    1.471204    0.073737
      6          1           0        4.335367    0.216253   -1.301820
      7          1           0        1.385609    1.650073    1.468419
      8          1           0        3.625036    2.430619    0.069792
      9          6           0       -1.803362   -0.344499   -0.183834
     10          8           0       -1.570348    0.926035   -0.564067
     11          6           0       -2.664173    1.631616   -0.278863
     12          6           0       -3.610340    0.858410    0.268328
     13          6           0       -3.036518   -0.452854    0.333452
     14          1           0       -4.583059    1.165570    0.586938
     15          1           0       -3.480226   -1.347136    0.714121
     16          1           0       -2.634448    2.671805   -0.519259
     17          7           0        0.691508   -1.278284    1.001402
     18         16           0       -0.594867   -1.552369   -0.479872
     19          1           0        0.667951   -1.713862    1.898841
 ---------------------------------------------------------------------
 Rotational constants (GHZ):      1.7730245      0.4795964      0.4120114
 Standard basis: 6-311+G(2df,p) (5D, 7F)
 There are   458 symmetry adapted basis functions of A   symmetry.
 Integral buffers will be    131072 words long.
 Raffenetti 1 integral format.
 Two-electron integral symmetry is turned on.
   458 basis functions,   694 primitive gaussians,   518 cartesian basis functions
    47 alpha electrons       47 beta electrons
       nuclear repulsion energy       742.1870550700 Hartrees.
 NAtoms=   19 NActive=   19 NUniq=   19 SFac= 7.50D-01 NAtFMM=   80 NAOKFM=F Big=F
 One-electron integrals computed using PRISM.
 NBasis=   458 RedAO= T  NBF=   458
 NBsUse=   458 1.00D-06 NBFU=   458
 Initial guess read from the read-write file.
 B after Tr=     0.000000    0.000000    0.000000
         Rot=    1.000000    0.000000    0.000000    0.000000 Ang=   0.00 deg.
 Initial guess orbital symmetries:
       Occupied  (A) (A) (A) (A) (A) (A) (A) (A) (A) (A) (A) (A)
                 (A) (A) (A) (A) (A) (A) (A) (A) (A) (A) (A) (A)
                 (A) (A) (A) (A) (A) (A) (A) (A) (A) (A) (A) (A)
                 (A) (A) (A) (A) (A) (A) (A) (A) (A) (A) (A)
       Virtual   (A) (A) (A) (A) (A) (A) (A) (A) (A) (A) (A) (A)
                 (A) (A) (A) (A) (A) (A) (A) (A) (A) (A) (A) (A)
                 (A) (A) (A) (A) (A) (A) (A) (A) (A) (A) (A) (A)
                 (A) (A) (A) (A) (A) (A) (A) (A) (A) (A) (A) (A)
                 (A) (A) (A) (A) (A) (A) (A) (A) (A) (A) (A) (A)
                 (A) (A) (A) (A) (A) (A) (A) (A) (A) (A) (A) (A)
                 (A) (A) (A) (A) (A) (A) (A) (A) (A) (A) (A) (A)
                 (A) (A) (A) (A) (A) (A) (A) (A) (A) (A) (A) (A)
                 (A) (A) (A) (A) (A) (A) (A) (A) (A) (A) (A) (A)
                 (A) (A) (A) (A) (A) (A) (A) (A) (A) (A) (A) (A)
                 (A) (A) (A) (A) (A) (A) (A) (A) (A) (A) (A) (A)
                 (A) (A) (A) (A) (A) (A) (A) (A) (A) (A) (A) (A)
                 (A) (A) (A) (A) (A) (A) (A) (A) (A) (A) (A) (A)
                 (A) (A) (A) (A) (A) (A) (A) (A) (A) (A) (A) (A)
                 (A) (A) (A) (A) (A) (A) (A) (A) (A) (A) (A) (A)
                 (A) (A) (A) (A) (A) (A) (A) (A) (A) (A) (A) (A)
                 (A) (A) (A) (A) (A) (A) (A) (A) (A) (A) (A) (A)
                 (A) (A) (A) (A) (A) (A) (A) (A) (A) (A) (A) (A)
                 (A) (A) (A) (A) (A) (A) (A) (A) (A) (A) (A) (A)
                 (A) (A) (A) (A) (A) (A) (A) (A) (A) (A) (A) (A)
                 (A) (A) (A) (A) (A) (A) (A) (A) (A) (A) (A) (A)
                 (A) (A) (A) (A) (A) (A) (A) (A) (A) (A) (A) (A)
                 (A) (A) (A) (A) (A) (A) (A) (A) (A) (A) (A) (A)
                 (A) (A) (A) (A) (A) (A) (A) (A) (A) (A) (A) (A)
                 (A) (A) (A) (A) (A) (A) (A) (A) (A) (A) (A) (A)
                 (A) (A) (A) (A) (A) (A) (A) (A) (A) (A) (A) (A)
                 (A) (A) (A) (A) (A) (A) (A) (A) (A) (A) (A) (A)
                 (A) (A) (A) (A) (A) (A) (A) (A) (A) (A) (A) (A)
                 (A) (A) (A) (A) (A) (A) (A) (A) (A) (A) (A) (A)
                 (A) (A) (A) (A) (A) (A) (A) (A) (A) (A) (A) (A)
                 (A) (A) (A) (A) (A) (A) (A) (A) (A) (A) (A) (A)
                 (A) (A) (A) (A) (A) (A) (A) (A) (A) (A) (A) (A)
                 (A) (A) (A) (A) (A) (A) (A) (A) (A) (A) (A) (A)
                 (A) (A) (A) (A) (A) (A) (A) (A) (A) (A) (A) (A)
                 (A) (A) (A)
 Harris functional with IExCor=  205 diagonalized for initial guess.
 ExpMin= 4.05D-02 ExpMax= 9.34D+04 ExpMxC= 3.17D+03 IAcc=2 IRadAn=         0 AccDes= 0.00D+00
 HarFok:  IExCor=  205 AccDes= 0.00D+00 IRadAn=         0 IDoV= 1
 ScaDFX=  1.000000  1.000000  1.000000  1.000000
 FoFCou: FMM=F IPFlag=           0 FMFlag=      100000 FMFlg1=           0
         NFxFlg=           0 DoJE=T BraDBF=F KetDBF=T FulRan=T
         Omega=  0.000000  0.000000  1.000000  0.000000  0.000000 ICntrl=     500 IOpCl=  0
         NMat0=    1 NMatS0=    1 NMatT0=    0 NMatD0=    1 NMtDS0=    0 NMtDT0=    0
         I1Cent=           4 NGrid=           0.
 Petite list used in FoFCou.
 Requested convergence on RMS density matrix=1.00D-08 within 128 cycles.
 Requested convergence on MAX density matrix=1.00D-06.
 Requested convergence on             energy=1.00D-06.
 No special actions if energy rises.
 Initial convergence to 1.0D-05 achieved.  Increase integral accuracy.
 SCF Done:  E(RHF) =  -908.740435666     A.U. after   14 cycles
             Convg  =    0.5836D-08             -V/T =  2.0008
 Calling FoFJK, ICntrl=      2127 FMM=F ISym2X=0 I1Cent= 0 IOpClX= 0 NMat=1 NMatS=1 NMatT=0.
 ***** Axes restored to original set *****
 -------------------------------------------------------------------
 Center     Atomic                   Forces (Hartrees/Bohr)
 Number     Number              X              Y              Z
 -------------------------------------------------------------------
      1        6           0.004213823    0.006816977   -0.000458620
      2        8          -0.013243280   -0.006815701    0.007478224
      3        6          -0.057103740   -0.076700511    0.043554904
      4        6          -0.006603500   -0.003522882    0.002058501
      5        6           0.001628405   -0.002616771   -0.003695893
      6        1          -0.000443966   -0.000101260   -0.000153354
      7        1           0.000305774   -0.000453023   -0.000062924
      8        1           0.000039285    0.000120485   -0.000208801
      9        6           0.005947767   -0.004662877    0.000375239
     10        8          -0.002618467    0.002557539    0.000869559
     11        6           0.003031399   -0.000917638   -0.001146382
     12        6          -0.000935296   -0.001529811    0.000697902
     13        6          -0.001572408    0.001787507    0.000249813
     14        1          -0.000003096    0.000086664   -0.000060054
     15        1           0.000134487   -0.000080253   -0.000090349
     16        1          -0.000175870    0.000110575   -0.000034906
     17        7           0.021998301    0.085240686   -0.113380128
     18       16           0.046239378   -0.002224551    0.069017011
     19        1          -0.000838995    0.002904843   -0.005009740
 -------------------------------------------------------------------
 Cartesian Forces:  Max     0.113380128 RMS     0.026192569

 GradGradGradGradGradGradGradGradGradGradGradGradGradGradGradGradGradGrad
 Berny optimization.
 Using GEDIIS/GDIIS optimizer.
 Internal  Forces:  Max     0.118223066 RMS     0.016076870
 Search for a local minimum.
 Step number   2 out of a maximum of  100
 All quantities printed in internal units (Hartrees-Bohrs-Radians)
 Mixed Optimization -- RFO/linear search
 Update second derivatives using D2CorX and points    1    2
 DE= -4.86D-02 DEPred=-4.39D-02 R= 1.11D+00
 SS=  1.41D+00  RLast= 3.00D-01 DXNew= 5.0454D-01 9.0000D-01
 Trust test= 1.11D+00 RLast= 3.00D-01 DXMaxT set to 5.05D-01
 Use linear search instead of GDIIS.
 Linear search step of   0.600 exceeds DXMaxT=   0.505 but not scaled.
 Quartic linear search produced a step of  2.00000.
 Iteration  1 RMS(Cart)=  0.07199646 RMS(Int)=  0.03261329
 Iteration  2 RMS(Cart)=  0.06400812 RMS(Int)=  0.00666252
 Iteration  3 RMS(Cart)=  0.01238309 RMS(Int)=  0.00009188
 Iteration  4 RMS(Cart)=  0.00001895 RMS(Int)=  0.00009041
 Iteration  5 RMS(Cart)=  0.00000001 RMS(Int)=  0.00009041
 Variable       Old X    -DE/DX   Delta X   Delta X   Delta X     New X
                                 (Linear)    (Quad)   (Total)
    R1        2.52383   0.00553   0.00756   0.00000   0.00747   2.53130
    R2        2.52846  -0.00225   0.00012   0.00000  -0.00006   2.52840
    R3        2.01775  -0.00022  -0.00067   0.00000  -0.00067   2.01708
    R4        2.52816  -0.01026  -0.02793   0.00000  -0.02779   2.50037
    R5        2.52348  -0.00468  -0.01660   0.00000  -0.01643   2.50705
    R6        3.05880  -0.11822  -0.45838   0.00000  -0.45838   2.60041
    R7        2.71223   0.00316   0.00390   0.00000   0.00387   2.71610
    R8        2.01853  -0.00043  -0.00074   0.00000  -0.00074   2.01779
    R9        2.01941   0.00011  -0.00013   0.00000  -0.00013   2.01927
   R10        2.54456   0.00122   0.00205   0.00000   0.00205   2.54662
   R11        2.53533   0.00125   0.00506   0.00000   0.00506   2.54039
   R12        3.27694  -0.00423  -0.02387   0.00000  -0.02387   3.25308
   R13        2.51812  -0.00223  -0.00521   0.00000  -0.00521   2.51291
   R14        2.53004   0.00111   0.00360   0.00000   0.00360   2.53365
   R15        2.01827   0.00011   0.00019   0.00000   0.00019   2.01846
   R16        2.70761  -0.00107  -0.00499   0.00000  -0.00499   2.70262
   R17        2.01948   0.00000  -0.00001   0.00000  -0.00001   2.01948
   R18        2.01903  -0.00001  -0.00019   0.00000  -0.00019   2.01884
   R19        3.74340  -0.08503  -0.35777   0.00000  -0.35777   3.38563
   R20        1.88564  -0.00578  -0.00817   0.00000  -0.00817   1.87747
    A1        1.93970  -0.00200   0.00076   0.00000   0.00052   1.94022
    A2        2.03047   0.00074  -0.00336   0.00000  -0.00325   2.02722
    A3        2.31301   0.00126   0.00261   0.00000   0.00272   2.31573
    A4        1.86272  -0.00103  -0.02008   0.00000  -0.02001   1.84271
    A5        1.94311   0.00578   0.03824   0.00000   0.03848   1.98158
    A6        2.05790  -0.00803  -0.03769   0.00000  -0.03786   2.02004
    A7        2.28091   0.00232   0.00005   0.00000  -0.00011   2.28080
    A8        1.83787  -0.00285  -0.02395   0.00000  -0.02382   1.81406
    A9        2.20407   0.00125   0.01161   0.00000   0.01154   2.21561
   A10        2.24118   0.00160   0.01228   0.00000   0.01220   2.25338
   A11        1.84131   0.00010   0.00502   0.00000   0.00483   1.84613
   A12        2.21206  -0.00019  -0.00107   0.00000  -0.00097   2.21109
   A13        2.22980   0.00009  -0.00396   0.00000  -0.00386   2.22595
   A14        1.92211  -0.00113  -0.00136   0.00000  -0.00136   1.92075
   A15        2.08109   0.00122   0.00374   0.00000   0.00374   2.08483
   A16        2.27854  -0.00010  -0.00241   0.00000  -0.00241   2.27613
   A17        1.87249   0.00052  -0.00126   0.00000  -0.00126   1.87122
   A18        1.94098   0.00045   0.00336   0.00000   0.00336   1.94434
   A19        2.03162  -0.00007  -0.00143   0.00000  -0.00143   2.03019
   A20        2.31059  -0.00038  -0.00193   0.00000  -0.00193   2.30866
   A21        1.83804  -0.00031  -0.00180   0.00000  -0.00180   1.83625
   A22        2.21319   0.00006   0.00098   0.00000   0.00098   2.21417
   A23        2.23195   0.00025   0.00082   0.00000   0.00082   2.23277
   A24        1.85112   0.00047   0.00107   0.00000   0.00107   1.85219
   A25        2.19775  -0.00041  -0.00103   0.00000  -0.00103   2.19673
   A26        2.23430  -0.00006  -0.00004   0.00000  -0.00004   2.23426
   A27        1.86717   0.03308   0.09617   0.00000   0.09617   1.96334
   A28        2.20571  -0.01575  -0.05268   0.00000  -0.05269   2.15302
   A29        2.21031  -0.01733  -0.04349   0.00000  -0.04349   2.16682
   A30        1.80136  -0.00606  -0.02857   0.00000  -0.02857   1.77278
    D1        0.01129   0.00003  -0.00042   0.00000  -0.00047   0.01082
    D2       -3.12955   0.00029   0.00235   0.00000   0.00232  -3.12724
    D3       -0.00826   0.00014   0.00258   0.00000   0.00259  -0.00568
    D4        3.13870   0.00024   0.00236   0.00000   0.00244   3.14115
    D5        3.13242  -0.00018  -0.00077   0.00000  -0.00083   3.13160
    D6       -0.00380  -0.00009  -0.00100   0.00000  -0.00097  -0.00477
    D7       -0.00992  -0.00022  -0.00242   0.00000  -0.00241  -0.01232
    D8       -3.10317  -0.00172  -0.01347   0.00000  -0.01334  -3.11651
    D9        0.00487   0.00030   0.00397   0.00000   0.00393   0.00880
   D10        3.13542  -0.00021  -0.00138   0.00000  -0.00142   3.13400
   D11        3.09012   0.00169   0.01558   0.00000   0.01583   3.10595
   D12       -0.06251   0.00118   0.01023   0.00000   0.01048  -0.05203
   D13       -1.32105   0.00111   0.00749   0.00000   0.00729  -1.31376
   D14        1.81941   0.00070   0.00523   0.00000   0.00505   1.82446
   D15        1.87993  -0.00074  -0.00706   0.00000  -0.00687   1.87306
   D16       -1.26279  -0.00115  -0.00931   0.00000  -0.00912  -1.27190
   D17        0.00203  -0.00023  -0.00387   0.00000  -0.00374  -0.00171
   D18        3.13817  -0.00033  -0.00363   0.00000  -0.00358   3.13459
   D19       -3.12821   0.00030   0.00164   0.00000   0.00179  -3.12642
   D20        0.00793   0.00020   0.00188   0.00000   0.00194   0.00988
   D21        0.00538   0.00000  -0.00112   0.00000  -0.00112   0.00426
   D22        3.09527  -0.00013  -0.00169   0.00000  -0.00169   3.09358
   D23       -0.00124  -0.00002   0.00108   0.00000   0.00108  -0.00016
   D24       -3.14027  -0.00005   0.00029   0.00000   0.00029  -3.13998
   D25       -3.08345   0.00008   0.00149   0.00000   0.00149  -3.08196
   D26        0.06071   0.00005   0.00070   0.00000   0.00070   0.06141
   D27        1.40119  -0.00006   0.00050   0.00000   0.00050   1.40169
   D28       -1.80431  -0.00024  -0.00011   0.00000  -0.00011  -1.80441
   D29       -0.00770   0.00003   0.00069   0.00000   0.00069  -0.00702
   D30        3.13633   0.00006   0.00098   0.00000   0.00098   3.13730
   D31        0.00681  -0.00004  -0.00002   0.00000  -0.00002   0.00679
   D32       -3.13672   0.00004   0.00017   0.00000   0.00017  -3.13655
   D33       -3.13774  -0.00008  -0.00037   0.00000  -0.00037  -3.13811
   D34        0.00191   0.00000  -0.00018   0.00000  -0.00018   0.00174
   D35       -0.00331   0.00004  -0.00062   0.00000  -0.00062  -0.00393
   D36        3.13565   0.00007   0.00019   0.00000   0.00019   3.13584
   D37        3.14025  -0.00004  -0.00082   0.00000  -0.00082   3.13943
   D38       -0.00398  -0.00001  -0.00001   0.00000  -0.00001  -0.00399
   D39       -1.57490  -0.00145  -0.01114   0.00000  -0.01114  -1.58604
   D40        1.56783  -0.00104  -0.00887   0.00000  -0.00887   1.55896
         Item               Value     Threshold  Converged?
 Maximum Force            0.118223     0.000450     NO 
 RMS     Force            0.016077     0.000300     NO 
 Maximum Displacement     0.344541     0.001800     NO 
 RMS     Displacement     0.125655     0.001200     NO 
 Predicted change in Energy=-8.015710D-02
 GradGradGradGradGradGradGradGradGradGradGradGradGradGradGradGradGradGrad

                          Input orientation:                          
 ---------------------------------------------------------------------
 Center     Atomic      Atomic             Coordinates (Angstroms)
 Number     Number       Type             X           Y           Z
 ---------------------------------------------------------------------
      1          6           0        3.383317    0.523848   -0.628837
      2          8           0        2.561810   -0.528048   -0.515180
      3          6           0        1.623644   -0.155454    0.340223
      4          6           0        1.790181    1.075491    0.806171
      5          6           0        2.982022    1.536416    0.148229
      6          1           0        4.205626    0.408258   -1.299491
      7          1           0        1.160578    1.590535    1.497880
      8          1           0        3.453823    2.489901    0.248614
      9          6           0       -1.732139   -0.195359   -0.256934
     10          8           0       -1.559915    1.109362   -0.546929
     11          6           0       -2.662550    1.746465   -0.164046
     12          6           0       -3.559406    0.899649    0.361460
     13          6           0       -2.939412   -0.387776    0.302226
     14          1           0       -4.527260    1.145751    0.741892
     15          1           0       -3.334940   -1.324241    0.630720
     16          1           0       -2.679596    2.802246   -0.325044
     17          7           0        0.673093   -1.105514    0.635916
     18         16           0       -0.510069   -1.327405   -0.691006
     19          1           0        0.653137   -1.610648    1.491199
 ---------------------------------------------------------------------
                    Distance matrix (angstroms):
                    1          2          3          4          5
     1  C    0.000000
     2  O    1.339506   0.000000
     3  C    2.120608   1.323139   0.000000
     4  C    2.213965   2.216465   1.326675   0.000000
     5  C    1.337970   2.208778   2.178181   1.437298   0.000000
     6  H    1.067394   2.047912   3.110155   3.273131   2.205865
     7  H    3.255966   3.241027   2.145478   1.067770   2.267629
     8  H    2.154125   3.238377   3.218050   2.253693   1.068554
     9  C    5.179137   4.314554   3.408734   3.892555   5.038503
    10  O    4.978461   4.435171   3.538622   3.613193   4.614629
    11  C    6.185737   5.708822   4.716254   4.606337   5.657104
    12  C    7.023057   6.346346   5.289396   5.370919   6.575806
    13  C    6.455605   5.563387   4.569124   4.976360   6.228130
    14  H    8.052508   7.391668   6.299849   6.318158   7.542835
    15  H    7.080741   6.059594   5.102746   5.661834   6.951271
    16  H    6.484004   6.212838   5.263881   4.923437   5.820672
    17  N    3.405839   2.285988   1.376080   2.456350   3.542427
    18  S    4.311550   3.179046   2.643792   3.647821   4.593526
    19  H    4.062574   2.973317   2.093853   2.996243   4.138996
                    6          7          8          9         10
     6  H    0.000000
     7  H    4.300626   0.000000
     8  H    2.700939   2.761973   0.000000
     9  C    6.058740   3.825781   5.861774   0.000000
    10  O    5.856565   3.437129   5.260831   1.347611   0.000000
    11  C    7.088856   4.171645   6.175193   2.155220   1.329777
    12  C    7.955876   4.903777   7.192150   2.218188   2.206154
    13  C    7.365510   4.706721   7.011230   1.344318   2.205787
    14  H    8.998580   5.755072   8.108498   3.257135   3.235355
    15  H    7.974171   5.427483   7.796216   2.152040   3.234191
    16  H    7.354387   4.420207   6.168101   3.144511   2.041758
    17  N    4.303034   2.872161   4.561740   2.722261   3.360226
    18  S    5.061676   4.012064   5.582755   1.721454   2.657211
    19  H    4.948142   3.241160   5.118824   3.278499   4.055862
                   11         12         13         14         15
    11  C    0.000000
    12  C    1.340748   0.000000
    13  C    2.202055   1.430162   0.000000
    14  H    2.158407   1.068661   2.250839   0.000000
    15  H    3.242375   2.251348   1.068324   2.744967   0.000000
    16  H    1.068122   2.205727   3.261474   2.701146   4.286124
    17  N    4.460969   4.691487   3.698200   5.667724   4.014000
    18  S    3.789399   3.919938   2.787672   4.930266   3.118792
    19  H    5.000383   5.032238   3.976868   5.915718   4.089892
[...]
 04018533,-0.01217747,-0.08487880,-0.06469363,-0.16696770,-0.24904863,-
 0.16182146,0.23262899,0.85801299,-0.09495327,-0.00815225,0.01735852,-0
 .01876084,-0.03668864,0.00988168,-0.01369348,-0.04981968,-0.03524194,-
 0.15986724,-0.07036318,0.07817763,0.42196986,-0.00677786,-0.18868775,-
 0.17719666,-0.05143613,-0.05894465,-0.02035152,-0.03131697,-0.04075782
 ,-0.02286106,-0.07795982,-0.13990388,0.03794827,0.30884492,0.66845180,
 0.02068841,-0.17195495,-0.43663495,-0.02188110,-0.05219931,-0.03560326
 ,0.00466379,0.02138188,0.04200264,0.06631753,0.01999702,-0.16310054,-0
 .04795824,0.25419555,0.69999762,-0.12767545,-0.03832936,0.14273789,-0.
 01624580,-0.00366548,0.02020313,-0.00076582,-0.00529198,-0.00431569,0.
 00461111,-0.00243076,0.00090367,0.00721023,0.00051579,-0.00192605,0.13
 336929,-0.03430990,-0.05980918,0.02718284,-0.01858440,-0.00862389,0.03
 225623,-0.00110576,-0.00410255,-0.00605634,-0.00247712,0.00104858,-0.0
 0438092,0.00958465,0.01197685,-0.01041157,0.04724097,0.05991601,0.1512
 8786,0.03656884,-0.30839267,-0.00449934,0.00042747,0.00703098,-0.00171
 166,-0.00187139,0.00145500,0.00086360,-0.00438315,-0.00310797,0.013513
 39,0.00964300,-0.00710224,-0.15948630,-0.04112475,0.30973419,-0.002849
 98,-0.00470182,0.00355773,0.00589949,-0.00638363,-0.00215854,0.0064070
 2,0.00109645,-0.01202828,-0.07795756,0.00228430,0.10004032,-0.00075581
 ,0.01121181,0.01597724,0.00100410,0.00026438,0.00106457,0.06985220,-0.
 00556847,-0.00302597,0.00209176,-0.00431104,0.00104786,-0.00763958,0.0
 1196013,0.00179307,-0.02002732,0.00188581,-0.06830475,-0.06511563,0.00
 016790,0.00901701,0.01785093,-0.00016013,0.00123095,0.00054434,-0.0067
 6187,0.05942968,0.00154880,0.00012952,-0.00036987,0.00198248,-0.004002
 91,-0.00059269,0.00758583,0.00419656,-0.00878840,0.09695895,-0.0689147
 2,-0.34119311,-0.00165925,-0.00376222,-0.00526719,0.00021330,-0.000546
 05,-0.00006560,-0.10508343,0.07175837,0.35620382,0.00410328,0.00423988
 ,0.00040971,0.00770001,-0.00272230,0.00368977,-0.00118890,-0.00227260,
 0.00373051,-0.00412823,-0.01125423,-0.01046090,-0.14212301,-0.14977456
 ,-0.03874868,-0.00241395,0.00150409,-0.00140353,-0.00023733,0.00102842
 ,-0.00000255,0.13840306,-0.00636342,-0.00536769,0.00291612,-0.00480846
 ,0.00359492,-0.00379782,-0.00210291,0.00031166,0.00028417,-0.00085151,
 -0.00414872,-0.00505535,-0.14843253,-0.26424934,-0.07675175,0.00205542
 ,-0.00150583,0.00041014,0.00035080,-0.00032648,0.00059528,0.16058946,0
 .27176246,-0.01831610,-0.02025304,0.00489017,0.00016133,-0.00812399,-0
 .00320601,0.00525617,0.00169169,-0.00521149,0.00700635,0.01663436,0.01
 333701,-0.03634761,-0.07379146,-0.08987100,-0.00044680,0.00164199,-0.0
 0031151,-0.00116922,-0.00083168,-0.00009129,0.04331196,0.08205696,0.07
 885170,-0.00126725,-0.00128476,0.00020141,0.00026552,-0.00004896,0.000
 96450,0.00144014,0.00815070,-0.00045355,0.00066917,-0.00147078,-0.0007
 6357,-0.00003252,0.00041586,0.00056691,0.00005139,-0.00007350,0.000028
 02,0.00000861,0.00013258,0.00011098,-0.00001959,-0.00000587,0.00001097
 ,0.68580495,-0.00057609,-0.00034301,-0.00001557,0.00003513,-0.00081984
 ,0.00034806,-0.00060389,0.00550190,0.00073066,0.00047654,-0.00087094,-
 0.00064748,-0.00011503,-0.00029910,0.00041159,-0.00008581,-0.00000198,
 -0.00000074,-0.00015771,0.00013756,-0.00012003,0.00002254,-0.00001820,
 -0.00001114,-0.12656889,0.55355078,-0.00061968,-0.00083553,0.00003431,
 0.00082394,0.00092097,-0.00059082,0.00291833,-0.00096277,0.00097056,0.
 00004657,0.00021723,-0.00039389,-0.00003600,0.00040915,0.00038155,0.00
 005690,-0.00002599,-0.00001313,0.00003132,-0.00007497,0.00000876,-0.00
 001005,-0.00002025,0.00002275,-0.24548100,-0.06903274,0.33600959,0.000
 38016,0.00015215,0.00002279,0.00005573,0.00027529,-0.00071226,-0.00089
 314,-0.00198582,0.00024990,-0.00078692,0.00085809,-0.00003448,0.000115
 32,0.00022091,-0.00024023,0.00006283,-0.00003472,0.00000502,0.00013550
 ,-0.00015583,0.00007130,-0.00000483,-0.00004764,0.00002653,-0.10073704
 ,-0.02156761,0.02047311,0.45819478,-0.00013868,-0.00010949,-0.00009203
 ,0.00006990,-0.00001237,0.00036947,0.00036872,0.00135182,-0.00013020,0
 .00029104,0.00016121,0.00007084,0.00003352,0.00020403,0.00006692,0.000
 05516,-0.00003736,0.00001151,0.00002543,-0.00002769,0.00007369,0.00004
 128,-0.00001173,0.00001045,-0.07484490,-0.20763029,0.09515429,-0.07253
 694,0.48581605,-0.00017089,-0.00022820,0.00008541,0.00017671,0.0001242
 8,0.00031246,-0.00063080,0.00001314,-0.00017239,-0.00004614,0.00028857
 ,-0.00007827,0.00017702,0.00005778,-0.00003795,-0.00006236,0.00003863,
 -0.00000452,0.00002598,-0.00002082,0.00004265,0.00000522,0.00002365,-0
 .00001996,0.04486085,0.06016308,-0.12910939,-0.17502372,-0.09908388,0.
 25329094,-0.00058618,-0.00043880,0.00021966,0.00010877,-0.00032262,0.0
 0042489,0.00216254,0.00351985,-0.00082153,0.00007847,-0.00114107,-0.00
 015080,-0.00001635,-0.00027644,0.00014360,-0.00011918,0.00002348,-0.00
 001348,-0.00012255,0.00014490,-0.00008304,-0.00007620,0.00000270,0.000
 00627,-0.03102358,0.07369260,0.00118544,-0.23336981,0.10213494,0.05255
 419,0.57241314,0.00054498,0.00041668,-0.00001422,-0.00015743,0.0002358
 9,-0.00029763,-0.00178931,-0.00255494,0.00078658,0.00000993,0.00092473
 ,0.00007657,0.00014141,0.00014512,-0.00017704,0.00004042,0.00001378,0.
 00000822,0.00010890,-0.00012415,0.00006832,0.00002294,0.00001699,-0.00
 003546,0.03908016,-0.11183273,0.02626615,0.07593416,-0.16985026,-0.010
 28263,0.01371980,0.87210923,0.00012419,0.00005374,-0.00011355,0.000057
 56,0.00015619,-0.00027628,-0.00094227,-0.00121378,0.00019236,-0.000128
 49,0.00038650,0.00008052,-0.00001431,0.00005842,0.00000630,0.00005545,
 -0.00002064,0.00000218,0.00000860,-0.00004229,-0.00002614,0.00002919,-
 0.00000498,0.00000638,0.01200089,0.00878959,0.00549191,0.05975633,-0.0
 2519700,-0.10677842,-0.23844373,-0.27867981,0.41243587,0.00023053,0.00
 021249,-0.00007036,-0.00009480,-0.00003097,-0.00020573,-0.00043448,-0.
 00066599,0.00054089,-0.00001232,0.00024051,0.00002007,-0.00003671,0.00
 002288,-0.00005853,0.00001993,-0.00000662,0.00000238,0.00001847,-0.000
 04578,0.00000007,0.00001516,-0.00000376,-0.00000804,-0.02711867,0.0105
 1444,0.01927663,-0.07871887,0.04108419,0.03862517,-0.27650054,-0.12461
 905,0.15911440,0.80605289,0.00019298,0.00013333,-0.00015405,-0.0000032
 9,0.00024018,-0.00004566,-0.00151060,-0.00208060,0.00037562,0.00015576
 ,0.00057769,0.00006629,-0.00002187,0.00010271,0.00002280,0.00004974,-0
 .00000081,0.00000571,0.00004391,-0.00004631,0.00001961,0.00006233,0.00
 001645,-0.00001426,0.07692773,-0.00918430,-0.03670904,-0.01366524,-0.0
 0056462,0.01282711,-0.10036845,-0.21680757,0.10943123,-0.10368860,0.58
 643427,-0.00000852,0.00007531,0.00008121,-0.00017396,-0.00018105,0.000
 24980,0.00077630,0.00042427,-0.00012060,-0.00006741,-0.00020055,0.0000
 2882,0.00003660,-0.00002662,-0.00010140,-0.00003614,0.00001434,0.00000
 018,0.00002760,-0.00000094,0.00003690,-0.00000633,-0.00000455,-0.00000
 423,-0.00421045,0.00224522,0.01829656,0.06079892,-0.01609673,-0.010867
 92,0.14942080,0.12323464,-0.21593030,-0.33757035,-0.11225769,0.3821416
 8,0.00010832,0.00003950,-0.00013859,0.00006530,0.00013873,-0.00029928,
 -0.00105410,-0.00109143,0.00053227,0.00007377,0.00038112,-0.00003887,-
 0.00004559,0.00002565,0.00009646,0.00003452,-0.00001072,0.00000095,-0.
 00000146,-0.00003550,-0.00003698,0.00002894,0.00000065,-0.00000607,-0.
 38639313,0.00549448,0.17145841,-0.04266419,-0.03860802,0.04653888,0.03
 900026,0.00041369,-0.01432134,-0.14294974,0.04770236,0.02129231,0.6594
 3785,0.00012046,0.00011436,0.00006344,-0.00007016,0.00007009,0.0001660
 1,0.00094482,-0.00063155,-0.00023774,0.00002317,0.00005121,0.00015119,
 0.00007122,0.00002735,-0.00012594,-0.00000896,0.00000667,-0.00000563,0
 .00000528,0.00002720,0.00002053,-0.00000852,0.00001188,0.00000192,-0.0
 0262922,-0.09773204,0.01088168,0.00104314,-0.05150068,0.02641163,-0.05
 585448,-0.04360230,0.05507511,0.07693888,-0.24832532,0.02462510,0.0474
 2681,0.69755072,-0.00006057,0.00003336,0.00011646,-0.00014757,-0.00020
 257,0.00033960,0.00081306,0.00157459,-0.00061133,-0.00001361,-0.000510
 49,-0.00008838,0.00004563,-0.00003718,-0.00009525,-0.00002960,-0.00000
 792,0.00000609,0.00001824,0.00005365,0.00004098,-0.00002696,-0.0000079
 4,0.00000353,0.17503954,0.00537792,-0.18116227,0.03262483,0.04737777,-
 0.02436171,0.00680298,0.02272224,0.00148028,0.01056413,0.04226207,-0.0
 9550123,-0.30661083,-0.24139522,0.42529680,0.00001178,0.00001234,0.000
 00834,-0.00001992,-0.00004391,-0.00005570,0.00009636,0.00012985,0.0000
 4325,-0.00003866,-0.00003766,-0.00001461,-0.00000612,-0.00001331,-0.00
 000361,-0.00000007,-0.00000198,-0.00000041,-0.00000642,0.00000944,-0.0
 0000475,-0.00000862,-0.00000358,0.00000354,0.00074655,0.00018990,0.001
 46021,0.00036550,0.00065829,0.00599079,-0.00907350,0.01146053,0.000492
 50,-0.30026057,0.10340330,0.11045150,-0.00108201,-0.00175150,0.0010119
 1,0.31044825,0.00004582,0.00002892,-0.00001627,0.00000810,0.00005390,-
 0.00000841,-0.00021764,-0.00040885,0.00006675,0.00005304,0.00010433,0.
 00003440,0.00000446,0.00000747,-0.00000260,0.00000361,0.00000497,-0.00
 000103,-0.00000231,-0.00000416,-0.00000366,0.00000586,0.00000866,-0.00
 000497,0.00251830,-0.00714165,0.00283183,-0.00422058,0.00198818,0.0060
 9852,-0.01470978,0.01362947,0.00292704,0.10640398,-0.10884513,-0.03295
 158,0.02338107,0.00101739,-0.01406115,-0.11344554,0.09911694,-0.000001
 80,0.00000125,-0.00000580,-0.00000052,-0.00002598,-0.00002864,0.000007
 39,0.00006185,0.00002666,-0.00000154,-0.00002575,0.00000233,-0.0000162
 5,-0.00001791,0.00000606,0.00000072,-0.00000015,-0.00000059,-0.0000111
 6,0.00000798,-0.00000781,-0.00000197,0.00000065,0.00000224,0.00093747,
 0.00367372,0.00150516,0.00797188,0.00331112,0.00549016,0.01085891,-0.0
 1209153,-0.00190099,0.10907080,-0.03127163,-0.08684413,-0.00895487,0.0
 0051320,0.00442884,-0.11767686,0.03702673,0.08024397,-0.00002257,-0.00
 004927,-0.00002262,0.00008601,0.00009766,-0.00001940,-0.00016283,-0.00
 015612,-0.00004139,0.00004593,0.00006380,0.00002214,-0.00000614,0.0000
 1501,0.00002960,0.00000882,0.00000063,-0.00000105,-0.00000689,-0.00001
 308,-0.00000549,0.00000525,0.00000563,-0.00000003,-0.00058497,-0.02349
 695,0.01011344,-0.00256895,-0.00217126,0.00819009,-0.00254981,0.006174
 96,0.00102495,0.01262401,0.00926375,-0.01040624,-0.11288316,-0.0883655
 6,0.07614161,-0.00042150,-0.00132195,-0.00009416,0.10527498,-0.0000265
 8,-0.00003113,-0.00001316,0.00004172,0.00002197,-0.00002878,-0.0000193
 0,0.00007665,-0.00004284,-0.00000552,-0.00000745,0.00000867,-0.0000094
 0,-0.00000266,0.00001658,0.00000517,-0.00000279,-0.00000062,-0.0000085
 9,-0.00000708,-0.00000468,0.00000200,-0.00000133,0.00000384,0.00273437
 ,0.00593559,-0.00357266,0.00337434,0.00357093,0.00060917,0.00323183,-0
 .00524543,0.00152414,-0.01500285,-0.00813794,0.01209197,-0.09319981,-0
 .25061142,0.13564830,0.00024727,0.00042909,-0.00087788,0.10027339,0.25
 399195,-0.00007073,-0.00007240,-0.00000153,0.00007283,0.00001184,-0.00
 004575,0.00000030,0.00029042,-0.00017480,-0.00001808,-0.00006747,-0.00
 000674,-0.00001365,-0.00002671,0.00003863,-0.00000077,-0.00000104,-0.0
 0000124,-0.00001623,0.00000227,-0.00001303,-0.00000543,-0.00000437,0.0
 0000754,0.00012638,0.01136316,-0.00367311,0.00591926,0.00364564,0.0054
 1987,0.00214447,0.00006441,0.00225377,-0.00067432,-0.00182913,0.002070
 29,0.07720637,0.13279043,-0.13654072,-0.00071157,0.00000025,-0.0011090
 5,-0.08264264,-0.14520591,0.13323258,0.00001102,0.00000119,0.00006987,
 -0.00000693,-0.00005846,-0.00004192,0.00017730,0.00019717,-0.00006439,
 -0.00004868,-0.00009682,-0.00002564,0.00001036,-0.00005277,-0.00002263
 ,-0.00002278,0.00001132,-0.00000204,-0.00001429,0.00002004,-0.00001302
 ,-0.00002940,0.00000234,-0.00000238,-0.00478689,-0.00003860,0.00457000
 ,-0.00026811,0.03692616,-0.01584593,-0.06334392,-0.01932678,0.02006986
 ,0.01153796,-0.01815822,0.00470393,-0.00138210,-0.00167730,0.00578635,
 -0.00076615,0.00027728,-0.00188237,0.00110544,-0.00095901,0.00012752,0
 .05740648,0.00001212,0.00001049,-0.00001187,-0.00000116,0.00001181,0.0
 0001317,-0.00014251,-0.00008409,-0.00003438,0.00002806,0.00003361,0.00
 001656,-0.00000047,0.00000815,0.00000472,0.00000920,-0.00000090,0.0000
 0146,0.00000093,-0.00000180,0.00000091,0.00000376,0.00000252,-0.000000
 13,0.00307477,0.00376092,-0.00210320,0.00139560,-0.02105351,0.00626418
 ,-0.00880491,-0.34037421,0.11986168,0.00375942,-0.00122264,0.00115028,
 -0.00047072,0.00057972,0.00287569,-0.00106281,-0.00054056,-0.00066421,
 0.00020384,0.00002409,0.00013782,0.00147083,0.35950013,0.00002398,0.00
 002231,0.00000828,-0.00000862,-0.00003459,-0.00008202,-0.00003656,0.00
 008146,-0.00001089,0.00002601,-0.00006078,-0.00000254,-0.00002782,-0.0
 0003830,0.00001623,0.00000617,-0.00000203,-0.00000038,-0.00002214,0.00
 003210,-0.00002927,-0.00001566,0.00000399,0.00000393,0.00274259,0.0004
 5046,0.00121171,-0.00234391,-0.01475953,0.00407898,0.01619351,0.125531
 38,-0.09801769,-0.00370782,0.01405750,0.00426235,0.00550216,0.00349360
 ,0.00299565,-0.00135773,-0.00144406,-0.00255952,-0.00032851,0.00079537
 ,0.00051126,-0.01759834,-0.12793948,0.08657782,-0.00265161,-0.00462347
 ,0.00270593,-0.01584674,-0.01462417,0.01145516,-0.16105513,-0.15114779
 ,0.01344112,-0.00378482,-0.02133773,0.00263030,0.00108031,-0.00283565,
 0.00089330,0.00083814,-0.00176429,0.00034556,-0.00144265,0.00216602,-0
 .00103093,-0.00046411,-0.00027560,0.00050836,-0.03142709,-0.00113133,-
 0.01308509,0.00173183,-0.00259532,0.00036429,-0.00436541,0.00310859,0.
 00162093,0.00179830,0.00407153,0.00112411,0.00286283,-0.00016404,-0.00
 466169,0.00003604,0.00067204,0.00023908,-0.00067287,-0.00056577,-0.001
 10662,-0.00015754,0.00010446,0.00001858,0.40326417,-0.01044463,-0.0128
 1245,0.00157266,0.00228583,0.00734399,0.00688739,-0.12579625,-0.224064
 82,0.01797563,-0.02691432,-0.02463429,0.00217728,-0.00525142,0.0051572
 4,-0.00283525,0.00053948,-0.00021879,-0.00000164,0.00319406,-0.0006790
 8,0.00151276,-0.00156917,0.00000666,0.00091817,0.01428795,0.00469305,0
 .01358890,-0.00232428,0.00628607,0.00134180,0.00217820,-0.00079886,-0.
 00182807,-0.00066381,-0.00104952,0.00109745,-0.00116466,0.00193126,-0.
 00041037,-0.00016262,0.00007432,-0.00013639,0.00013297,-0.00009377,-0.
 00031284,-0.00061733,-0.00003452,-0.00062692,0.25278192,0.33014773,-0.
 00267123,-0.00580420,-0.00659290,0.03951301,0.04846073,-0.01175376,0.0
 3045237,0.02967701,-0.13808775,-0.01540744,-0.01751494,0.01879690,0.00
 109310,-0.00333480,-0.00435600,0.00226639,0.00115158,0.00077504,0.0000
 4530,0.00112897,0.00029951,-0.00065130,-0.00072173,0.00160515,-0.00330
 614,0.00617908,0.00398309,-0.00022555,-0.00101662,-0.00035848,-0.00233
 418,0.00147780,0.00112893,-0.00041496,0.00166129,-0.00215411,0.0020035
 2,-0.00120869,0.00051954,-0.00011042,0.00007957,-0.00013683,0.00008911
 ,0.00008649,0.00062649,0.00008624,0.00018988,0.00037317,-0.05663658,-0
 .06165378,0.74613923,-0.00073429,-0.00107125,-0.00167001,0.00107470,0.
 00183119,-0.00318001,-0.03284809,-0.01660804,-0.01191636,0.00228258,0.
 00556082,0.00125764,0.00082604,-0.00066316,0.00203737,0.00026958,0.000
 27024,0.00003043,-0.00040671,0.00015614,-0.00044577,0.00046832,-0.0001
 0497,0.00008079,-0.10921505,0.08311988,0.02858969,-0.00041038,0.008838
 18,-0.00605217,0.00773018,-0.00509826,-0.00058277,-0.00606474,-0.00482
 616,0.00420138,-0.01318473,0.02426345,0.00182843,-0.00000289,0.0005881
 4,-0.00041091,0.00089084,-0.00004167,-0.00030632,0.00060011,0.00037074
 ,0.00084348,-0.11674295,-0.05673011,-0.10157750,0.27202487,0.00222741,
 0.00219652,-0.00072769,-0.00236033,-0.00028611,-0.00077295,-0.02165555
 ,-0.01317014,-0.02263328,-0.00196210,0.00109987,0.00434882,-0.00018348
 ,-0.00236453,-0.00096104,-0.00000536,0.00005432,0.00004296,-0.00023981
 ,0.00032351,-0.00039498,-0.00007722,-0.00014773,0.00024647,0.06162064,
 -0.13655834,-0.04034140,0.03277559,-0.04737869,-0.00463655,-0.01636400
 ,0.00355791,0.00848956,0.00566437,0.00860481,-0.00317968,0.00941811,-0
 .00948412,-0.00077704,0.00044955,0.00037437,0.00054160,-0.00063384,0.0
 0004548,-0.00081577,0.00207730,-0.00059397,0.00046369,-0.02232514,-0.0
 5281934,-0.02373747,-0.04601913,0.24331492,0.00255554,0.00267809,-0.00
 055909,0.00042784,-0.00016576,0.00071364,-0.01803520,-0.01358287,0.004
 39023,0.00187029,0.00504627,0.00222407,0.00094187,-0.00088058,-0.00001
 860,-0.00004816,0.00025161,-0.00001551,-0.00043084,0.00031752,-0.00030
 884,0.00027040,0.00012406,-0.00011272,0.01588455,-0.03109253,-0.054886
 44,-0.00940133,0.00642546,0.00344281,0.00213997,0.00125558,-0.00012438
 ,0.00558778,0.00158490,0.00480197,0.00561571,-0.01124750,0.00293168,0.
 00047444,-0.00053984,0.00091173,-0.00218445,-0.00113255,-0.00275036,0.
 00005335,0.00022718,0.00062190,-0.06148230,-0.04071924,-0.13617816,0.0
 8891289,0.08903492,0.18966760,0.00138771,0.00159406,0.00149042,-0.0053
 5930,-0.00787122,0.00219449,-0.00241314,0.00705741,0.02587839,-0.00039
 505,0.00030481,-0.00058625,-0.00091503,-0.00016615,-0.00057515,-0.0002
 3690,-0.00053076,-0.00002396,0.00047625,-0.00061966,-0.00010650,-0.000
 02985,-0.00000676,-0.00007603,0.00361945,0.00079639,-0.00177217,-0.000
 61941,0.00036829,0.00032283,-0.00034635,0.00023038,0.00007806,-0.00010
 582,0.00036904,-0.00035404,0.00002842,-0.00030748,0.00087414,-0.000018
 05,-0.00004389,-0.00003386,-0.00016161,-0.00007159,-0.00003076,-0.0000
 2189,0.00004884,0.00009063,-0.07300070,-0.04376179,0.10778625,-0.00655
 739,-0.00240700,-0.03315234,0.08466866,-0.00161714,-0.00056546,0.00040
 592,-0.00110944,-0.00341541,-0.00156138,-0.00760762,-0.00345919,0.0368
 2699,0.00107817,0.00069392,-0.00211090,0.00018988,0.00011200,0.0014714
 6,-0.00053711,0.00005192,-0.00027472,-0.00033051,-0.00045936,-0.000626
 29,0.00015606,0.00004485,-0.00013974,-0.00201620,-0.00114739,0.0034083
 7,0.00050940,-0.00120160,-0.00000945,-0.00036774,0.00014064,0.00023338
 ,-0.00011372,0.00015533,-0.00005920,0.00015869,0.00049955,-0.00051571,
 -0.00003755,0.00010235,-0.00002668,-0.00002360,0.00004526,0.00002937,0
 .00000165,-0.00002523,-0.00002617,-0.03951429,-0.03843488,0.02489981,0
 .00616397,0.00323123,-0.00758475,0.04501710,0.04363149,-0.00074462,-0.
 00085106,0.00018722,0.00008918,0.00012428,0.00138095,0.00250183,-0.002
 52767,-0.00243556,-0.00165256,-0.00083950,0.00078132,0.00008962,0.0000
 1284,-0.00026065,-0.00009176,0.00004017,0.00001170,0.00012294,-0.00003
 466,0.00012062,-0.00011339,-0.00004627,0.00009780,0.00073965,0.0011876
 8,0.00191310,0.00006161,-0.00014120,-0.00037428,-0.00024791,0.00008644
 ,0.00008924,-0.00009221,-0.00003268,-0.00044584,0.00015980,0.00002688,
 0.00020143,-0.00000081,-0.00003152,-0.00002378,0.00013507,0.00009455,0
 .00015588,0.00003152,0.00000975,0.00004103,0.10265650,0.06145245,-0.47
 462906,-0.00164028,-0.00419018,-0.01475152,-0.10200417,-0.05434031,0.4
 8794040\\0.00000074,-0.00000741,0.00002052,-0.00000113,-0.00003367,-0.
 00001692,0.00000617,0.00007379,-0.00002910,0.00003296,-0.00000329,0.00
 001865,-0.00002278,0.00001443,0.00000236,-0.00000379,-0.00000697,-0.00
 000009,0.00000294,0.00000122,0.00000687,-0.00000179,0.00000033,0.00000
 155,0.00001943,0.00000008,0.00003333,-0.00001447,0.00001389,-0.0000217
 8,0.00002009,-0.00002245,-0.00001639,0.00000821,0.00000109,0.00003689,
 -0.00002574,0.00000090,-0.00003011,0.00000178,0.00000187,0.00000265,-0
 .00000337,-0.00000399,-0.00000626,-0.00000240,-0.00000057,-0.00000046,
 -0.00003272,-0.00005070,-0.00001561,0.00001597,0.00001394,0.00001840,-
 0.00000009,0.00000749,-0.00000451\\\@


 MANHOOD BEGINS BY TRYING TO SHAVE FACE,
 AND ENDS BY TRYING TO SAVE FACE.
 Job cpu time:  0 days  6 hours 14 minutes 30.2 seconds.
 File lengths (MBytes):  RWF=    334 Int=      0 D2E=      0 Chk=     14 Scr=      1
 Normal termination of Gaussian 09 at Fri May 29 12:31:27 2015.
