 Entering Gaussian System, Link 0=g09
 Input=Gas-HF-6-311+G2dfp-Freq-Opt-CF3SNHCF3.inp
 Output=Gas-HF-6-311+G2dfp-Freq-Opt-CF3SNHCF3.log
 Initial command:
 /usr/local/g09/l1.exe /local/gaussian-tmp/3702321/Gau-31165.inp -scrdir=/local/gaussian-tmp/3702321/
 Entering Link 1 = /usr/local/g09/l1.exe PID=     31166.
  
 Copyright (c) 1988,1990,1992,1993,1995,1998,2003,2009, Gaussian, Inc.
                  All Rights Reserved.
  
 This is part of the Gaussian(R) 09 program.  It is based on
 the Gaussian(R) 03 system (copyright 2003, Gaussian, Inc.),
 the Gaussian(R) 98 system (copyright 1998, Gaussian, Inc.),
 the Gaussian(R) 94 system (copyright 1995, Gaussian, Inc.),
 the Gaussian 92(TM) system (copyright 1992, Gaussian, Inc.),
 the Gaussian 90(TM) system (copyright 1990, Gaussian, Inc.),
 the Gaussian 88(TM) system (copyright 1988, Gaussian, Inc.),
 the Gaussian 86(TM) system (copyright 1986, Carnegie Mellon
 University), and the Gaussian 82(TM) system (copyright 1983,
 Carnegie Mellon University). Gaussian is a federally registered
 trademark of Gaussian, Inc.
  
 This software contains proprietary and confidential information,
 including trade secrets, belonging to Gaussian, Inc.
  
 This software is provided under written license and may be
 used, copied, transmitted, or stored only in accord with that
 written license.
  
 The following legend is applicable only to US Government
 contracts under FAR:
  
                    RESTRICTED RIGHTS LEGEND
  
 Use, reproduction and disclosure by the US Government is
 subject to restrictions as set forth in subparagraphs (a)
 and (c) of the Commercial Computer Software - Restricted
 Rights clause in FAR 52.227-19.
  
 Gaussian, Inc.
 340 Quinnipiac St., Bldg. 40, Wallingford CT 06492
  
  
 ---------------------------------------------------------------
 Warning -- This program may not be used in any manner that
 competes with the business of Gaussian, Inc. or will provide
 assistance to any competitor of Gaussian, Inc.  The licensee
 of this program is prohibited from giving any competitor of
 Gaussian, Inc. access to this program.  By using this program,
 the user acknowledges that Gaussian, Inc. is engaged in the
 business of creating and licensing software in the field of
 computational chemistry and represents and warrants to the
 licensee that it is not a competitor of Gaussian, Inc. and that
 it will not use this program in any manner prohibited above.
 ---------------------------------------------------------------
  

 Cite this work as:
 Gaussian 09, Revision A.02,
 M. J. Frisch, G. W. Trucks, H. B. Schlegel, G. E. Scuseria, 
 M. A. Robb, J. R. Cheeseman, G. Scalmani, V. Barone, B. Mennucci, 
 G. A. Petersson, H. Nakatsuji, M. Caricato, X. Li, H. P. Hratchian, 
 A. F. Izmaylov, J. Bloino, G. Zheng, J. L. Sonnenberg, M. Hada, 
 M. Ehara, K. Toyota, R. Fukuda, J. Hasegawa, M. Ishida, T. Nakajima, 
 Y. Honda, O. Kitao, H. Nakai, T. Vreven, J. A. Montgomery, Jr., 
 J. E. Peralta, F. Ogliaro, M. Bearpark, J. J. Heyd, E. Brothers, 
 K. N. Kudin, V. N. Staroverov, R. Kobayashi, J. Normand, 
 K. Raghavachari, A. Rendell, J. C. Burant, S. S. Iyengar, J. Tomasi, 
 M. Cossi, N. Rega, J. M. Millam, M. Klene, J. E. Knox, J. B. Cross, 
 V. Bakken, C. Adamo, J. Jaramillo, R. Gomperts, R. E. Stratmann, 
 O. Yazyev, A. J. Austin, R. Cammi, C. Pomelli, J. W. Ochterski, 
 R. L. Martin, K. Morokuma, V. G. Zakrzewski, G. A. Voth, 
 P. Salvador, J. J. Dannenberg, S. Dapprich, A. D. Daniels, 
 O. Farkas, J. B. Foresman, J. V. Ortiz, J. Cioslowski, 
 and D. J. Fox, Gaussian, Inc., Wallingford CT, 2009.
 
 ******************************************
 Gaussian 09:  EM64L-G09RevA.02 11-Jun-2009
                29-May-2015 
 ******************************************
 %chk=fiii
 %mem=10GB
 %nproc=8
 Will use up to    8 processors via shared memory.
 ----------------------------
 # HF/6-311+G(2df,p) Opt Freq
 ----------------------------
 1/18=20,19=15,38=1/1,3;
 2/9=110,12=2,17=6,18=5,40=1/2;
 3/5=4,6=6,7=114,11=9,16=1,25=1,30=1,71=1/1,2,3;
 4//1;
 5/5=2,38=5/2;
 6/7=2,8=2,9=2,10=2,28=1/1;
 7//1,2,3,16;
 1/18=20,19=15/3(2);
 2/9=110/2;
 99//99;
 2/9=110/2;
 3/5=4,6=6,7=114,11=9,16=1,25=1,30=1,71=1/1,2,3;
 4/5=5,16=3/1;
 5/5=2,38=5/2;
 7//1,2,3,16;
 1/18=20,19=15/3(-5);
 2/9=110/2;
 6/7=2,8=2,9=2,10=2,19=2,28=1/1;
 99/9=1/99;
 -----
 title
 -----
 Symbolic Z-matrix:
 Charge =  0 Multiplicity = 1
 6                     1.92825   0.22699   0.04726 
 9                     1.45797   1.43909   0.12373 
 9                     2.31299  -0.12722   1.2427 
 9                     2.97442   0.23583  -0.73912 
 7                     0.75455  -0.95575  -0.68369 
 16                   -0.75465  -0.95569   0.68381 
 6                    -1.92825   0.22703  -0.04733 
 9                    -2.31334  -0.12763  -1.24254 
 9                    -2.97419   0.23639   0.73936 
 9                    -1.45766   1.43899  -0.12431 
 1                     0.83082  -1.47233  -1.53652 
 

 GradGradGradGradGradGradGradGradGradGradGradGradGradGradGradGradGradGrad
 Berny optimization.
 Initialization pass.
                           ----------------------------
                           !    Initial Parameters    !
                           ! (Angstroms and Degrees)  !
 --------------------------                            --------------------------
 ! Name  Definition              Value          Derivative Info.                !
 --------------------------------------------------------------------------------
 ! R1    R(1,2)                  1.3024         estimate D2E/DX2                !
 ! R2    R(1,3)                  1.3048         estimate D2E/DX2                !
 ! R3    R(1,4)                  1.3088         estimate D2E/DX2                !
 ! R4    R(1,5)                  1.8195         estimate D2E/DX2                !
 ! R5    R(5,6)                  2.0366         estimate D2E/DX2                !
 ! R6    R(5,11)                 1.0            estimate D2E/DX2                !
 ! R7    R(6,7)                  1.8195         estimate D2E/DX2                !
 ! R8    R(7,8)                  1.3048         estimate D2E/DX2                !
 ! R9    R(7,9)                  1.3088         estimate D2E/DX2                !
 ! R10   R(7,10)                 1.3024         estimate D2E/DX2                !
 ! A1    A(2,1,3)              107.7772         estimate D2E/DX2                !
 ! A2    A(2,1,4)              108.5194         estimate D2E/DX2                !
 ! A3    A(2,1,5)              113.3052         estimate D2E/DX2                !
 ! A4    A(3,1,4)              108.458          estimate D2E/DX2                !
 ! A5    A(3,1,5)              112.4445         estimate D2E/DX2                !
 ! A6    A(4,1,5)              106.1793         estimate D2E/DX2                !
 ! A7    A(1,5,6)              102.0198         estimate D2E/DX2                !
 ! A8    A(1,5,11)             128.9901         estimate D2E/DX2                !
 ! A9    A(6,5,11)             128.9901         estimate D2E/DX2                !
 ! A10   A(5,6,7)              102.0157         estimate D2E/DX2                !
 ! A11   A(6,7,8)              112.4418         estimate D2E/DX2                !
 ! A12   A(6,7,9)              106.1756         estimate D2E/DX2                !
 ! A13   A(6,7,10)             113.3015         estimate D2E/DX2                !
 ! A14   A(8,7,9)              108.462          estimate D2E/DX2                !
 ! A15   A(8,7,10)             107.7835         estimate D2E/DX2                !
 ! A16   A(9,7,10)             108.5194         estimate D2E/DX2                !
 ! D1    D(2,1,5,6)            -64.3084         estimate D2E/DX2                !
 ! D2    D(2,1,5,11)           115.6916         estimate D2E/DX2                !
 ! D3    D(3,1,5,6)             58.2141         estimate D2E/DX2                !
 ! D4    D(3,1,5,11)          -121.7859         estimate D2E/DX2                !
 ! D5    D(4,1,5,6)            176.6734         estimate D2E/DX2                !
 ! D6    D(4,1,5,11)            -3.3266         estimate D2E/DX2                !
 ! D7    D(1,5,6,7)             96.6996         estimate D2E/DX2                !
 ! D8    D(11,5,6,7)           -83.3004         estimate D2E/DX2                !
 ! D9    D(5,6,7,8)             58.2406         estimate D2E/DX2                !
 ! D10   D(5,6,7,9)            176.7009         estimate D2E/DX2                !
 ! D11   D(5,6,7,10)           -64.2854         estimate D2E/DX2                !
 --------------------------------------------------------------------------------
 Trust Radius=3.00D-01 FncErr=1.00D-07 GrdErr=1.00D-07
 Number of steps in this run=  47 maximum allowed number of steps= 100.
 GradGradGradGradGradGradGradGradGradGradGradGradGradGradGradGradGradGrad

                          Input orientation:                          
 ---------------------------------------------------------------------
 Center     Atomic      Atomic             Coordinates (Angstroms)
 Number     Number       Type             X           Y           Z
 ---------------------------------------------------------------------
      1          6           0        1.928247    0.226987    0.047256
      2          9           0        1.457969    1.439090    0.123732
      3          9           0        2.312988   -0.127224    1.242704
      4          9           0        2.974423    0.235833   -0.739115
      5          7           0        0.754545   -0.955754   -0.683690
      6         16           0       -0.754648   -0.955694    0.683806
      7          6           0       -1.928254    0.227026   -0.047327
      8          9           0       -2.313340   -0.127627   -1.242537
      9          9           0       -2.974189    0.236393    0.739364
     10          9           0       -1.457663    1.438989   -0.124308
     11          1           0        0.830822   -1.472335   -1.536524
 ---------------------------------------------------------------------
                    Distance matrix (angstroms):
                    1          2          3          4          5
     1  C    0.000000
     2  F    1.302384   0.000000
     3  F    1.304832   2.106299   0.000000
     4  F    1.308794   2.119426   2.120593   0.000000
     5  N    1.819542   2.623359   2.612700   2.520081   0.000000
     6  S    3.000309   3.308224   3.226317   4.165382   2.036592
     7  C    3.857661   3.600676   4.447225   4.951251   3.000223
     8  F    4.447514   4.306282   5.251603   5.324094   3.226457
     9  F    4.951059   4.633520   5.323515   6.129591   4.165304
    10  F    3.600385   2.926164   4.305758   4.633461   3.307804
    11  H    2.569123   3.409715   3.424945   2.854597   1.000000
                    6          7          8          9         10
     6  S    0.000000
     7  C    1.819542   0.000000
     8  F    2.612664   1.304836   0.000000
     9  F    2.520024   1.308797   2.120652   0.000000
    10  F    2.623316   1.302396   2.106396   2.119438   0.000000
    11  H    2.776779   3.566236   3.432262   4.751582   3.963247
                   11
    11  H    0.000000
 Stoichiometry    C2HF6NS
 Framework group  C1[X(C2HF6NS)]
 Deg. of freedom    27
 Full point group                 C1      NOp   1
 Largest Abelian subgroup         C1      NOp   1
 Largest concise Abelian subgroup C1      NOp   1
                         Standard orientation:                         
 ---------------------------------------------------------------------
 Center     Atomic      Atomic             Coordinates (Angstroms)
 Number     Number       Type             X           Y           Z
 ---------------------------------------------------------------------
      1          6           0       -1.996794    0.111883   -0.007665
      2          9           0       -1.551322    1.245486   -0.468862
      3          9           0       -2.388750   -0.605543   -1.024649
      4          9           0       -3.033486    0.351699    0.754371
      5          7           0       -0.791487   -0.763846    1.036878
      6         16           0        0.700992   -1.170838   -0.287725
      7          6           0        1.859818    0.198981    0.014685
      8          9           0        2.266017    0.243426    1.253888
      9          9           0        2.895909   -0.023650   -0.753367
     10          9           0        1.366503    1.366655   -0.284337
     11          1           0       -0.847440   -0.987509    2.009937
 ---------------------------------------------------------------------
 Rotational constants (GHZ):      2.2185294      0.6055577      0.5842578
 Standard basis: 6-311+G(2df,p) (5D, 7F)
 There are   354 symmetry adapted basis functions of A   symmetry.
 Integral buffers will be    131072 words long.
 Raffenetti 1 integral format.
 Two-electron integral symmetry is turned on.
   354 basis functions,   542 primitive gaussians,   404 cartesian basis functions
    45 alpha electrons       45 beta electrons
       nuclear repulsion energy       713.4555827758 Hartrees.
 NAtoms=   11 NActive=   11 NUniq=   11 SFac= 7.50D-01 NAtFMM=   80 NAOKFM=F Big=F
 One-electron integrals computed using PRISM.
 NBasis=   354 RedAO= T  NBF=   354
 NBsUse=   354 1.00D-06 NBFU=   354
 Harris functional with IExCor=  205 diagonalized for initial guess.
 ExpMin= 4.05D-02 ExpMax= 9.34D+04 ExpMxC= 3.17D+03 IAcc=2 IRadAn=         0 AccDes= 0.00D+00
 HarFok:  IExCor=  205 AccDes= 0.00D+00 IRadAn=         0 IDoV= 1
 ScaDFX=  1.000000  1.000000  1.000000  1.000000
 FoFCou: FMM=F IPFlag=           0 FMFlag=      100000 FMFlg1=           0
         NFxFlg=           0 DoJE=T BraDBF=F KetDBF=T FulRan=T
         Omega=  0.000000  0.000000  1.000000  0.000000  0.000000 ICntrl=     500 IOpCl=  0
         NMat0=    1 NMatS0=    1 NMatT0=    0 NMatD0=    1 NMtDS0=    0 NMtDT0=    0
         I1Cent=           4 NGrid=           0.
 Petite list used in FoFCou.
 Initial guess orbital symmetries:
       Occupied  (A) (A) (A) (A) (A) (A) (A) (A) (A) (A) (A) (A)
                 (A) (A) (A) (A) (A) (A) (A) (A) (A) (A) (A) (A)
                 (A) (A) (A) (A) (A) (A) (A) (A) (A) (A) (A) (A)
                 (A) (A) (A) (A) (A) (A) (A) (A) (A)
       Virtual   (A) (A) (A) (A) (A) (A) (A) (A) (A) (A) (A) (A)
                 (A) (A) (A) (A) (A) (A) (A) (A) (A) (A) (A) (A)
                 (A) (A) (A) (A) (A) (A) (A) (A) (A) (A) (A) (A)
                 (A) (A) (A) (A) (A) (A) (A) (A) (A) (A) (A) (A)
                 (A) (A) (A) (A) (A) (A) (A) (A) (A) (A) (A) (A)
                 (A) (A) (A) (A) (A) (A) (A) (A) (A) (A) (A) (A)
                 (A) (A) (A) (A) (A) (A) (A) (A) (A) (A) (A) (A)
                 (A) (A) (A) (A) (A) (A) (A) (A) (A) (A) (A) (A)
                 (A) (A) (A) (A) (A) (A) (A) (A) (A) (A) (A) (A)
                 (A) (A) (A) (A) (A) (A) (A) (A) (A) (A) (A) (A)
                 (A) (A) (A) (A) (A) (A) (A) (A) (A) (A) (A) (A)
                 (A) (A) (A) (A) (A) (A) (A) (A) (A) (A) (A) (A)
                 (A) (A) (A) (A) (A) (A) (A) (A) (A) (A) (A) (A)
                 (A) (A) (A) (A) (A) (A) (A) (A) (A) (A) (A) (A)
                 (A) (A) (A) (A) (A) (A) (A) (A) (A) (A) (A) (A)
                 (A) (A) (A) (A) (A) (A) (A) (A) (A) (A) (A) (A)
                 (A) (A) (A) (A) (A) (A) (A) (A) (A) (A) (A) (A)
                 (A) (A) (A) (A) (A) (A) (A) (A) (A) (A) (A) (A)
                 (A) (A) (A) (A) (A) (A) (A) (A) (A) (A) (A) (A)
                 (A) (A) (A) (A) (A) (A) (A) (A) (A) (A) (A) (A)
                 (A) (A) (A) (A) (A) (A) (A) (A) (A) (A) (A) (A)
                 (A) (A) (A) (A) (A) (A) (A) (A) (A) (A) (A) (A)
                 (A) (A) (A) (A) (A) (A) (A) (A) (A) (A) (A) (A)
                 (A) (A) (A) (A) (A) (A) (A) (A) (A) (A) (A) (A)
                 (A) (A) (A) (A) (A) (A) (A) (A) (A) (A) (A) (A)
                 (A) (A) (A) (A) (A) (A) (A) (A) (A)
 The electronic state of the initial guess is 1-A.
 Requested convergence on RMS density matrix=1.00D-08 within 128 cycles.
 Requested convergence on MAX density matrix=1.00D-06.
 Requested convergence on             energy=1.00D-06.
 No special actions if energy rises.
 Initial convergence to 1.0D-05 achieved.  Increase integral accuracy.
 SCF Done:  E(RHF) =  -1125.06531385     A.U. after   15 cycles
             Convg  =    0.3175D-08             -V/T =  2.0010

 **********************************************************************

            Population analysis using the SCF density.

 **********************************************************************

 Orbital symmetries:
       Occupied  (A) (A) (A) (A) (A) (A) (A) (A) (A) (A) (A) (A)
                 (A) (A) (A) (A) (A) (A) (A) (A) (A) (A) (A) (A)
                 (A) (A) (A) (A) (A) (A) (A) (A) (A) (A) (A) (A)
                 (A) (A) (A) (A) (A) (A) (A) (A) (A)
       Virtual   (A) (A) (A) (A) (A) (A) (A) (A) (A) (A) (A) (A)
                 (A) (A) (A) (A) (A) (A) (A) (A) (A) (A) (A) (A)
                 (A) (A) (A) (A) (A) (A) (A) (A) (A) (A) (A) (A)
                 (A) (A) (A) (A) (A) (A) (A) (A) (A) (A) (A) (A)
                 (A) (A) (A) (A) (A) (A) (A) (A) (A) (A) (A) (A)
                 (A) (A) (A) (A) (A) (A) (A) (A) (A) (A) (A) (A)
                 (A) (A) (A) (A) (A) (A) (A) (A) (A) (A) (A) (A)
                 (A) (A) (A) (A) (A) (A) (A) (A) (A) (A) (A) (A)
                 (A) (A) (A) (A) (A) (A) (A) (A) (A) (A) (A) (A)
                 (A) (A) (A) (A) (A) (A) (A) (A) (A) (A) (A) (A)
                 (A) (A) (A) (A) (A) (A) (A) (A) (A) (A) (A) (A)
                 (A) (A) (A) (A) (A) (A) (A) (A) (A) (A) (A) (A)
                 (A) (A) (A) (A) (A) (A) (A) (A) (A) (A) (A) (A)
                 (A) (A) (A) (A) (A) (A) (A) (A) (A) (A) (A) (A)
                 (A) (A) (A) (A) (A) (A) (A) (A) (A) (A) (A) (A)
                 (A) (A) (A) (A) (A) (A) (A) (A) (A) (A) (A) (A)
                 (A) (A) (A) (A) (A) (A) (A) (A) (A) (A) (A) (A)
                 (A) (A) (A) (A) (A) (A) (A) (A) (A) (A) (A) (A)
                 (A) (A) (A) (A) (A) (A) (A) (A) (A) (A) (A) (A)
                 (A) (A) (A) (A) (A) (A) (A) (A) (A) (A) (A) (A)
                 (A) (A) (A) (A) (A) (A) (A) (A) (A) (A) (A) (A)
                 (A) (A) (A) (A) (A) (A) (A) (A) (A) (A) (A) (A)
                 (A) (A) (A) (A) (A) (A) (A) (A) (A) (A) (A) (A)
                 (A) (A) (A) (A) (A) (A) (A) (A) (A) (A) (A) (A)
                 (A) (A) (A) (A) (A) (A) (A) (A) (A) (A) (A) (A)
                 (A) (A) (A) (A) (A) (A) (A) (A) (A)
 The electronic state is 1-A.
 Alpha  occ. eigenvalues --  -92.04393 -26.37912 -26.37833 -26.37291 -26.36682
 Alpha  occ. eigenvalues --  -26.35842 -26.35787 -15.63933 -11.58624 -11.54017
 Alpha  occ. eigenvalues --   -9.03971  -6.72076  -6.71987  -6.71877  -1.78597
 Alpha  occ. eigenvalues --   -1.77543  -1.68035  -1.67814  -1.67118  -1.66531
 Alpha  occ. eigenvalues --   -1.13956  -1.04964  -0.99120  -0.94353  -0.87065
 Alpha  occ. eigenvalues --   -0.86977  -0.86076  -0.85933  -0.83840  -0.79674
 Alpha  occ. eigenvalues --   -0.74473  -0.74311  -0.73817  -0.73498  -0.70224
 Alpha  occ. eigenvalues --   -0.70003  -0.69044  -0.68674  -0.68174  -0.66944
 Alpha  occ. eigenvalues --   -0.62309  -0.54789  -0.49124  -0.44008  -0.42050
 Alpha virt. eigenvalues --    0.03500   0.06889   0.08825   0.09068   0.10161
 Alpha virt. eigenvalues --    0.10899   0.11784   0.11925   0.12598   0.13123
 Alpha virt. eigenvalues --    0.15480   0.16236   0.18402   0.19367   0.19642
 Alpha virt. eigenvalues --    0.21499   0.24757   0.28250   0.30292   0.30754
 Alpha virt. eigenvalues --    0.31305   0.31767   0.32588   0.33644   0.35272
 Alpha virt. eigenvalues --    0.36608   0.37195   0.38100   0.38324   0.39255
 Alpha virt. eigenvalues --    0.39608   0.39856   0.40653   0.41619   0.41736
 Alpha virt. eigenvalues --    0.42740   0.43946   0.44516   0.45165   0.45590
 Alpha virt. eigenvalues --    0.46228   0.47338   0.48191   0.48798   0.50388
 Alpha virt. eigenvalues --    0.51261   0.52912   0.53686   0.54192   0.55424
 Alpha virt. eigenvalues --    0.58462   0.59084   0.62188   0.65051   0.68637
 Alpha virt. eigenvalues --    0.70077   0.71465   0.78386   0.79439   0.80594
 Alpha virt. eigenvalues --    0.82938   0.86995   0.87983   0.90560   0.93628
 Alpha virt. eigenvalues --    1.00611   1.01181   1.02307   1.04545   1.07920
 Alpha virt. eigenvalues --    1.08635   1.10663   1.15409   1.16467   1.22710
 Alpha virt. eigenvalues --    1.26225   1.29428   1.32107   1.33569   1.35534
 Alpha virt. eigenvalues --    1.36911   1.39708   1.44780   1.47832   1.51757
 Alpha virt. eigenvalues --    1.53320   1.54136   1.56391   1.57288   1.58114
 Alpha virt. eigenvalues --    1.58802   1.60094   1.61887   1.63951   1.64935
 Alpha virt. eigenvalues --    1.66040   1.66678   1.67514   1.69769   1.72196
 Alpha virt. eigenvalues --    1.72284   1.72871   1.74032   1.79016   1.88581
 Alpha virt. eigenvalues --    1.90816   1.94605   1.95623   1.97090   2.00904
 Alpha virt. eigenvalues --    2.02071   2.02965   2.06094   2.14042   2.16020
 Alpha virt. eigenvalues --    2.17282   2.18280   2.19754   2.22191   2.22337
 Alpha virt. eigenvalues --    2.23051   2.23880   2.24910   2.26298   2.26669
 Alpha virt. eigenvalues --    2.27086   2.29704   2.36165   2.36434   2.38508
 Alpha virt. eigenvalues --    2.38851   2.40066   2.41257   2.43302   2.46005
 Alpha virt. eigenvalues --    2.46673   2.47787   2.49532   2.56322   2.58042
 Alpha virt. eigenvalues --    2.60680   2.66751   2.76980   2.80693   2.82337
 Alpha virt. eigenvalues --    2.85167   2.88467   2.89529   2.90612   2.94066
 Alpha virt. eigenvalues --    2.95024   2.96208   2.98250   2.99907   3.02142
 Alpha virt. eigenvalues --    3.14702   3.18435   3.27833   3.39481   3.42237
 Alpha virt. eigenvalues --    3.46882   3.57918   3.64697   3.65362   3.70746
 Alpha virt. eigenvalues --    3.73054   3.76597   3.79453   3.80413   3.80565
 Alpha virt. eigenvalues --    3.81013   3.83404   3.88092   3.91450   3.93676
 Alpha virt. eigenvalues --    3.97677   4.00711   4.02010   4.04516   4.05763
 Alpha virt. eigenvalues --    4.07154   4.08071   4.09188   4.09703   4.11046
 Alpha virt. eigenvalues --    4.12957   4.25134   4.32506   4.34220   4.36090
 Alpha virt. eigenvalues --    4.41874   4.44818   4.54153   4.64620   4.67256
 Alpha virt. eigenvalues --    4.67841   4.68819   4.76115   5.03439   5.37366
 Alpha virt. eigenvalues --    5.45436   5.60594   5.64719   5.93236   6.01369
 Alpha virt. eigenvalues --    6.89806   6.90904   6.91097   6.92099   6.93080
 Alpha virt. eigenvalues --    6.95500   6.96239   6.97771   6.97893   6.99515
 Alpha virt. eigenvalues --    7.01129   7.01746   7.07448   7.07757   7.07835
 Alpha virt. eigenvalues --    7.08006   7.08241   7.08414   7.08666   7.08914
 Alpha virt. eigenvalues --    7.09285   7.09490   7.09705   7.10061   7.10636
 Alpha virt. eigenvalues --    7.11496   7.11892   7.12291   7.12779   7.13525
 Alpha virt. eigenvalues --    7.20771   7.22072   7.22792   7.23503   7.23948
 Alpha virt. eigenvalues --    7.24630   7.29526   7.30630   7.32130   7.32773
 Alpha virt. eigenvalues --    7.32860   7.34117   7.54827   7.56014   7.56077
 Alpha virt. eigenvalues --    7.57468   7.58914   7.60379   7.74562   7.75400
 Alpha virt. eigenvalues --    7.75630   7.77345   7.82605   7.84019   8.00574
 Alpha virt. eigenvalues --    8.01763   8.43050   8.44028   8.44210   8.46685
 Alpha virt. eigenvalues --    8.64083   9.65254   9.65699   9.66306   9.67243
 Alpha virt. eigenvalues --    9.67855   9.69033   9.76433   9.76687   9.78689
 Alpha virt. eigenvalues --    9.78783   9.80729   9.84544  10.02162  10.03413
 Alpha virt. eigenvalues --   10.09082  10.09799  10.11123  10.11709  10.19215
 Alpha virt. eigenvalues --   10.20971  10.34191  10.36768  10.41394  10.47534
 Alpha virt. eigenvalues --   10.48656  10.53912  10.71699  10.74132  10.74674
 Alpha virt. eigenvalues --   10.75910  18.40915  18.60725  18.82450  25.66286
 Alpha virt. eigenvalues --   25.71537  36.95984  68.77340  68.79345  68.80031
 Alpha virt. eigenvalues --   68.80284  68.82101  68.84176 192.44663
          Condensed to atoms (all electrons):
              1          2          3          4          5          6
     1  C    4.243293   0.239216   0.229231   0.177654   0.328607  -0.050147
     2  F    0.239216   8.938386   0.031201   0.021031  -0.019754   0.000972
     3  F    0.229231   0.031201   8.966755   0.021575  -0.018732  -0.006181
     4  F    0.177654   0.021031   0.021575   9.060994  -0.023245   0.007880
     5  N    0.328607  -0.019754  -0.018732  -0.023245   6.847772   0.146294
     6  S   -0.050147   0.000972  -0.006181   0.007880   0.146294  15.654752
     7  C    0.004316  -0.003055  -0.004149  -0.002455  -0.002453   0.288150
     8  F   -0.001396  -0.000603  -0.000182   0.000021   0.008915  -0.082268
     9  F   -0.001660   0.000159  -0.000011   0.000009   0.002366  -0.089009
    10  F   -0.001376   0.003063   0.000087  -0.000169   0.007785  -0.078418
    11  H   -0.016690   0.000494   0.000446   0.003473   0.334228  -0.008222
              7          8          9         10         11
     1  C    0.004316  -0.001396  -0.001660  -0.001376  -0.016690
     2  F   -0.003055  -0.000603   0.000159   0.003063   0.000494
     3  F   -0.004149  -0.000182  -0.000011   0.000087   0.000446
     4  F   -0.002455   0.000021   0.000009  -0.000169   0.003473
     5  N   -0.002453   0.008915   0.002366   0.007785   0.334228
     6  S    0.288150  -0.082268  -0.089009  -0.078418  -0.008222
     7  C    4.476109   0.216324   0.239272   0.236401  -0.011087
     8  F    0.216324   9.033560   0.023479   0.021489   0.001011
     9  F    0.239272   0.023479   9.040945   0.020350   0.000119
    10  F    0.236401   0.021489   0.020350   9.006336  -0.000180
    11  H   -0.011087   0.001011   0.000119  -0.000180   0.342749
 Mulliken atomic charges:
              1
     1  C    0.848952
     2  F   -0.211111
     3  F   -0.220040
     4  F   -0.266769
     5  N   -0.611783
     6  S    0.216198
     7  C    0.562628
     8  F   -0.220350
     9  F   -0.236017
    10  F   -0.215368
    11  H    0.353660
 Sum of Mulliken atomic charges =   0.00000
 Mulliken charges with hydrogens summed into heavy atoms:
              1
     1  C    0.848952
     2  F   -0.211111
     3  F   -0.220040
     4  F   -0.266769
     5  N   -0.258123
     6  S    0.216198
     7  C    0.562628
     8  F   -0.220350
     9  F   -0.236017
    10  F   -0.215368
 Sum of Mulliken charges with hydrogens summed into heavy atoms =   0.00000
 Electronic spatial extent (au):  <R**2>=           1793.4943
 Charge=              0.0000 electrons
 Dipole moment (field-independent basis, Debye):
    X=             -0.4686    Y=             -0.8602    Z=              0.7594  Tot=              1.2394
 Quadrupole moment (field-independent basis, Debye-Ang):
   XX=            -63.0557   YY=            -61.2404   ZZ=            -57.2796
   XY=             -0.4064   XZ=             -1.7820   YZ=             -1.1162
 Traceless Quadrupole moment (field-independent basis, Debye-Ang):
   XX=             -2.5305   YY=             -0.7152   ZZ=              3.2456
   XY=             -0.4064   XZ=             -1.7820   YZ=             -1.1162
 Octapole moment (field-independent basis, Debye-Ang**2):
  XXX=             -5.2409  YYY=             18.2320  ZZZ=              6.8148  XYY=             -1.0709
  XXY=              6.6106  XXZ=             -2.7212  XZZ=             -5.4402  YZZ=              0.7622
  YYZ=             -0.5919  XYZ=              2.8876
 Hexadecapole moment (field-independent basis, Debye-Ang**3):
 XXXX=          -1356.3824 YYYY=           -302.2231 ZZZZ=           -198.0359 XXXY=              5.7983
 XXXZ=             15.8068 YYYX=              6.7766 YYYZ=              4.4882 ZZZX=             -6.3578
 ZZZY=            -12.5692 XXYY=           -269.6944 XXZZ=           -261.7564 YYZZ=            -81.2442
 XXYZ=             -2.2554 YYXZ=              0.5384 ZZXY=              3.8544
 N-N= 7.134555827758D+02 E-N=-4.106318044860D+03  KE= 1.123901491405D+03
 Calling FoFJK, ICntrl=      2127 FMM=F ISym2X=0 I1Cent= 0 IOpClX= 0 NMat=1 NMatS=1 NMatT=0.
 ***** Axes restored to original set *****
 -------------------------------------------------------------------
 Center     Atomic                   Forces (Hartrees/Bohr)
 Number     Number              X              Y              Z
 -------------------------------------------------------------------
      1        6          -0.021962727   -0.046136100   -0.047547208
      2        9          -0.007285914   -0.027667607   -0.006498388
      3        9          -0.019232341   -0.007025303   -0.022149228
      4        9          -0.016380969   -0.004739173    0.005878762
      5        7          -0.001241706    0.096133699    0.141968437
      6       16           0.061020324   -0.010304240   -0.069727678
      7        6           0.007574711   -0.004081529   -0.005410597
      8        9          -0.000463543    0.000434747   -0.000287268
      9        9           0.000055675    0.000075323    0.002024340
     10        9          -0.000862941    0.000754825    0.000124397
     11        1          -0.001220568    0.002555358    0.001624431
 -------------------------------------------------------------------
 Cartesian Forces:  Max     0.141968437 RMS     0.037000162

 GradGradGradGradGradGradGradGradGradGradGradGradGradGradGradGradGradGrad
 Berny optimization.
 Internal  Forces:  Max     0.125707880 RMS     0.029399432
 Search for a local minimum.
 Step number   1 out of a maximum of   47
 All quantities printed in internal units (Hartrees-Bohrs-Radians)
 Mixed Optimization -- RFO/linear search
 Second derivative matrix not updated -- first step.
     Eigenvalues ---    0.00230   0.00230   0.00230   0.00230   0.10184
     Eigenvalues ---    0.11458   0.13303   0.13768   0.14432   0.15683
     Eigenvalues ---    0.16000   0.22000   0.24636   0.25000   0.25000
     Eigenvalues ---    0.25000   0.25000   0.25000   0.25000   0.25000
     Eigenvalues ---    0.47688   0.64808   0.64809   0.65868   0.65869
     Eigenvalues ---    0.66532   0.665351000.000001000.000001000.00000
     Eigenvalues --- 1000.000001000.000001000.000001000.000001000.00000
     Eigenvalues --- 1000.000001000.00000
 RFO step:  Lambda=-1.17643018D-01 EMin= 2.30000000D-03
 Linear search not attempted -- first point.
 Maximum step size (   0.300) exceeded in Quadratic search.
    -- Step size scaled by   0.449
 Iteration  1 RMS(Cart)=  0.07314511 RMS(Int)=  0.00454167
 Iteration  2 RMS(Cart)=  0.00776324 RMS(Int)=  0.00016027
 Iteration  3 RMS(Cart)=  0.00001697 RMS(Int)=  0.00015996
 Iteration  4 RMS(Cart)=  0.00000001 RMS(Int)=  0.00015996
 Variable       Old X    -DE/DX   Delta X   Delta X   Delta X     New X
                                 (Linear)    (Quad)   (Total)
    R1        2.46115  -0.02350   0.00000  -0.01347  -0.01347   2.44768
    R2        2.46578  -0.02406   0.00000  -0.01391  -0.01391   2.45187
    R3        2.47326  -0.01666   0.00000  -0.00977  -0.00977   2.46350
    R4        3.43844  -0.12571   0.00000  -0.22512  -0.22512   3.21332
    R5        3.84860  -0.09909   0.00000  -0.17422  -0.17422   3.67438
    R6        1.88973  -0.00280   0.00000  -0.00211  -0.00211   1.88761
    R7        3.43844  -0.00447   0.00000  -0.00551  -0.00551   3.43292
    R8        2.46578   0.00028   0.00000   0.00016   0.00016   2.46595
    R9        2.47327   0.00117   0.00000   0.00069   0.00069   2.47396
   R10        2.46117   0.00038   0.00000   0.00022   0.00022   2.46139
    A1        1.88107   0.02146   0.00000   0.02222   0.02156   1.90263
    A2        1.89402   0.01518   0.00000   0.02090   0.02088   1.91490
    A3        1.97755  -0.02349   0.00000  -0.02987  -0.03023   1.94732
    A4        1.89295   0.01542   0.00000   0.02103   0.02101   1.91396
    A5        1.96253  -0.02500   0.00000  -0.03184  -0.03221   1.93032
    A6        1.85318  -0.00108   0.00000   0.00107   0.00105   1.85423
    A7        1.78058   0.04038   0.00000   0.05369   0.05369   1.83427
    A8        2.25130  -0.01991   0.00000  -0.02638  -0.02638   2.22492
    A9        2.25130  -0.02048   0.00000  -0.02730  -0.02730   2.22400
   A10        1.78051  -0.01625   0.00000  -0.01984  -0.01984   1.76067
   A11        1.96248   0.00172   0.00000   0.00243   0.00243   1.96491
   A12        1.85311  -0.00294   0.00000  -0.00391  -0.00391   1.84920
   A13        1.97748   0.00159   0.00000   0.00195   0.00195   1.97943
   A14        1.89302   0.00089   0.00000   0.00111   0.00111   1.89413
   A15        1.88118  -0.00043   0.00000   0.00001   0.00000   1.88118
   A16        1.89402  -0.00093   0.00000  -0.00177  -0.00177   1.89225
    D1       -1.12239   0.00461   0.00000   0.00972   0.00947  -1.11292
    D2        2.01920   0.00429   0.00000   0.00853   0.00828   2.02748
    D3        1.01603  -0.00416   0.00000  -0.00821  -0.00796   1.00807
    D4       -2.12557  -0.00448   0.00000  -0.00940  -0.00915  -2.13472
    D5        3.08353   0.00006   0.00000   0.00039   0.00039   3.08392
    D6       -0.05806  -0.00026   0.00000  -0.00081  -0.00080  -0.05886
    D7        1.68773   0.00166   0.00000   0.00623   0.00623   1.69395
    D8       -1.45387   0.00198   0.00000   0.00742   0.00742  -1.44645
    D9        1.01649   0.00109   0.00000   0.00291   0.00292   1.01941
   D10        3.08401   0.00128   0.00000   0.00315   0.00315   3.08716
   D11       -1.12199  -0.00088   0.00000  -0.00047  -0.00047  -1.12246
         Item               Value     Threshold  Converged?
 Maximum Force            0.125708     0.000450     NO 
 RMS     Force            0.029399     0.000300     NO 
 Maximum Displacement     0.157599     0.001800     NO 
 RMS     Displacement     0.078866     0.001200     NO 
 Predicted change in Energy=-4.624760D-02
 GradGradGradGradGradGradGradGradGradGradGradGradGradGradGradGradGradGrad

                          Input orientation:                          
 ---------------------------------------------------------------------
 Center     Atomic      Atomic             Coordinates (Angstroms)
 Number     Number       Type             X           Y           Z
 ---------------------------------------------------------------------
      1          6           0        1.876252    0.209105    0.031775
      2          9           0        1.381455    1.403295    0.114053
      3          9           0        2.265680   -0.169192    1.210193
      4          9           0        2.891025    0.208938   -0.786563
      5          7           0        0.749309   -0.891885   -0.607938
      6         16           0       -0.698237   -0.945947    0.689127
      7          6           0       -1.871121    0.223488   -0.057124
      8          9           0       -2.231299   -0.127718   -1.261179
      9          9           0       -2.929443    0.212649    0.713421
     10          9           0       -1.418309    1.443278   -0.117226
     11          1           0        0.815589   -1.400327   -1.465177
 ---------------------------------------------------------------------
                    Distance matrix (angstroms):
                    1          2          3          4          5
     1  C    0.000000
     2  F    1.295254   0.000000
     3  F    1.297471   2.110945   0.000000
     4  F    1.303626   2.125182   2.126282   0.000000
     5  N    1.700415   2.487715   2.475332   2.414678   0.000000
     6  S    2.897283   3.189790   3.107999   4.048978   1.944399
     7  C    3.748455   3.464173   4.344354   4.817710   2.900708
     8  F    4.319393   4.157794   5.131493   5.155270   3.145584
     9  F    4.853799   4.512286   5.232771   6.010643   4.061921
    10  F    3.521295   2.809585   4.234841   4.532325   3.223717
    11  H    2.440521   3.267180   3.282691   2.712506   0.998882
                    6          7          8          9         10
     6  S    0.000000
     7  C    1.816624   0.000000
     8  F    2.612177   1.304922   0.000000
     9  F    2.514203   1.309161   2.121862   0.000000
    10  F    2.622423   1.302513   2.106563   2.118478   0.000000
    11  H    2.671920   3.440610   3.308274   4.623121   3.859192
                   11
    11  H    0.000000
 Stoichiometry    C2HF6NS
 Framework group  C1[X(C2HF6NS)]
 Deg. of freedom    27
 Full point group                 C1      NOp   1
 Largest Abelian subgroup         C1      NOp   1
 Largest concise Abelian subgroup C1      NOp   1
                         Standard orientation:                         
 ---------------------------------------------------------------------
 Center     Atomic      Atomic             Coordinates (Angstroms)
 Number     Number       Type             X           Y           Z
 ---------------------------------------------------------------------
      1          6           0       -1.937912    0.118277   -0.019499
      2          9           0       -1.456653    1.172408   -0.598187
      3          9           0       -2.334706   -0.718704   -0.928041
      4          9           0       -2.944644    0.453312    0.737920
      5          7           0       -0.793184   -0.609804    1.005638
      6         16           0        0.642209   -1.191126   -0.170117
      7          6           0        1.809782    0.189448    0.005704
      8          9           0        2.185330    0.373762    1.241752
      9          9           0        2.860639   -0.135439   -0.704262
     10          9           0        1.344640    1.320837   -0.441666
     11          1           0       -0.845742   -0.715300    1.997542
 ---------------------------------------------------------------------
 Rotational constants (GHZ):      2.2703636      0.6387904      0.6133635
 Standard basis: 6-311+G(2df,p) (5D, 7F)
 There are   354 symmetry adapted basis functions of A   symmetry.
 Integral buffers will be    131072 words long.
 Raffenetti 1 integral format.
 Two-electron integral symmetry is turned on.
   354 basis functions,   542 primitive gaussians,   404 cartesian basis functions
    45 alpha electrons       45 beta electrons
       nuclear repulsion energy       725.9462524561 Hartrees.
 NAtoms=   11 NActive=   11 NUniq=   11 SFac= 7.50D-01 NAtFMM=   80 NAOKFM=F Big=F
 One-electron integrals computed using PRISM.
 NBasis=   354 RedAO= T  NBF=   354
 NBsUse=   354 1.00D-06 NBFU=   354
 Initial guess read from the read-write file.
 B after Tr=     0.000000    0.000000    0.000000
         Rot=    1.000000    0.000000    0.000000    0.000000 Ang=   0.00 deg.
 Initial guess orbital symmetries:
       Occupied  (A) (A) (A) (A) (A) (A) (A) (A) (A) (A) (A) (A)
                 (A) (A) (A) (A) (A) (A) (A) (A) (A) (A) (A) (A)
                 (A) (A) (A) (A) (A) (A) (A) (A) (A) (A) (A) (A)
                 (A) (A) (A) (A) (A) (A) (A) (A) (A)
       Virtual   (A) (A) (A) (A) (A) (A) (A) (A) (A) (A) (A) (A)
                 (A) (A) (A) (A) (A) (A) (A) (A) (A) (A) (A) (A)
                 (A) (A) (A) (A) (A) (A) (A) (A) (A) (A) (A) (A)
                 (A) (A) (A) (A) (A) (A) (A) (A) (A) (A) (A) (A)
                 (A) (A) (A) (A) (A) (A) (A) (A) (A) (A) (A) (A)
                 (A) (A) (A) (A) (A) (A) (A) (A) (A) (A) (A) (A)
                 (A) (A) (A) (A) (A) (A) (A) (A) (A) (A) (A) (A)
                 (A) (A) (A) (A) (A) (A) (A) (A) (A) (A) (A) (A)
                 (A) (A) (A) (A) (A) (A) (A) (A) (A) (A) (A) (A)
                 (A) (A) (A) (A) (A) (A) (A) (A) (A) (A) (A) (A)
                 (A) (A) (A) (A) (A) (A) (A) (A) (A) (A) (A) (A)
                 (A) (A) (A) (A) (A) (A) (A) (A) (A) (A) (A) (A)
                 (A) (A) (A) (A) (A) (A) (A) (A) (A) (A) (A) (A)
                 (A) (A) (A) (A) (A) (A) (A) (A) (A) (A) (A) (A)
                 (A) (A) (A) (A) (A) (A) (A) (A) (A) (A) (A) (A)
                 (A) (A) (A) (A) (A) (A) (A) (A) (A) (A) (A) (A)
                 (A) (A) (A) (A) (A) (A) (A) (A) (A) (A) (A) (A)
                 (A) (A) (A) (A) (A) (A) (A) (A) (A) (A) (A) (A)
                 (A) (A) (A) (A) (A) (A) (A) (A) (A) (A) (A) (A)
                 (A) (A) (A) (A) (A) (A) (A) (A) (A) (A) (A) (A)
                 (A) (A) (A) (A) (A) (A) (A) (A) (A) (A) (A) (A)
                 (A) (A) (A) (A) (A) (A) (A) (A) (A) (A) (A) (A)
                 (A) (A) (A) (A) (A) (A) (A) (A) (A) (A) (A) (A)
                 (A) (A) (A) (A) (A) (A) (A) (A) (A) (A) (A) (A)
                 (A) (A) (A) (A) (A) (A) (A) (A) (A) (A) (A) (A)
                 (A) (A) (A) (A) (A) (A) (A) (A) (A)
 Harris functional with IExCor=  205 diagonalized for initial guess.
 ExpMin= 4.05D-02 ExpMax= 9.34D+04 ExpMxC= 3.17D+03 IAcc=2 IRadAn=         0 AccDes= 0.00D+00
 HarFok:  IExCor=  205 AccDes= 0.00D+00 IRadAn=         0 IDoV= 1
 ScaDFX=  1.000000  1.000000  1.000000  1.000000
 FoFCou: FMM=F IPFlag=           0 FMFlag=      100000 FMFlg1=           0
         NFxFlg=           0 DoJE=T BraDBF=F KetDBF=T FulRan=T
         Omega=  0.000000  0.000000  1.000000  0.000000  0.000000 ICntrl=     500 IOpCl=  0
         NMat0=    1 NMatS0=    1 NMatT0=    0 NMatD0=    1 NMtDS0=    0 NMtDT0=    0
         I1Cent=           4 NGrid=           0.
 Petite list used in FoFCou.
 Requested convergence on RMS density matrix=1.00D-08 within 128 cycles.
 Requested convergence on MAX density matrix=1.00D-06.
 Requested convergence on             energy=1.00D-06.
 No special actions if energy rises.
 Initial convergence to 1.0D-05 achieved.  Increase integral accuracy.
 SCF Done:  E(RHF) =  -1125.11540196     A.U. after   13 cycles
             Convg  =    0.7990D-08             -V/T =  2.0009
 Calling FoFJK, ICntrl=      2127 FMM=F ISym2X=0 I1Cent= 0 IOpClX= 0 NMat=1 NMatS=1 NMatT=0.
 ***** Axes restored to original set *****
 -------------------------------------------------------------------
 Center     Atomic                   Forces (Hartrees/Bohr)
 Number     Number              X              Y              Z
 -------------------------------------------------------------------
      1        6          -0.045405041   -0.063737650   -0.053959912
      2        9           0.000029403   -0.014190492   -0.001851592
      3        9          -0.008345377   -0.000504136   -0.011630149
      4        9          -0.006839957    0.000481561    0.006010211
      5        7           0.000014304    0.084894120    0.127483723
      6       16           0.058091251   -0.007611913   -0.068006789
      7        6           0.006131986   -0.003463770   -0.001858796
      8        9          -0.000338105    0.000305655   -0.000653270
      9        9          -0.001320353    0.000301244    0.001491265
     10        9          -0.001157405    0.000691230   -0.000522518
     11        1          -0.000860707    0.002834149    0.003497828
 -------------------------------------------------------------------
 Cartesian Forces:  Max     0.127483723 RMS     0.035302284

 GradGradGradGradGradGradGradGradGradGradGradGradGradGradGradGradGradGrad
 Berny optimization.
 Using GEDIIS/GDIIS optimizer.
 Internal  Forces:  Max     0.113719390 RMS     0.025812491
 Search for a local minimum.
 Step number   2 out of a maximum of   47
 All quantities printed in internal units (Hartrees-Bohrs-Radians)
 Mixed Optimization -- RFO/linear search
 Update second derivatives using D2CorX and points    1    2
 DE= -5.01D-02 DEPred=-4.62D-02 R= 1.08D+00
 SS=  1.41D+00  RLast= 3.00D-01 DXNew= 5.0454D-01 8.9999D-01
 Trust test= 1.08D+00 RLast= 3.00D-01 DXMaxT set to 5.05D-01
 Use linear search instead of GDIIS.
 Linear search step of   0.600 exceeds DXMaxT=   0.505 but not scaled.
 Quartic linear search produced a step of  2.00000.
 Iteration  1 RMS(Cart)=  0.09518597 RMS(Int)=  0.04935421
 Iteration  2 RMS(Cart)=  0.07296356 RMS(Int)=  0.00962608
 Iteration  3 RMS(Cart)=  0.01370060 RMS(Int)=  0.00102828
 Iteration  4 RMS(Cart)=  0.00002591 RMS(Int)=  0.00102812
 Iteration  5 RMS(Cart)=  0.00000005 RMS(Int)=  0.00102812
 Variable       Old X    -DE/DX   Delta X   Delta X   Delta X     New X
                                 (Linear)    (Quad)   (Total)
    R1        2.44768  -0.01321  -0.02695   0.00000  -0.02695   2.42073
    R2        2.45187  -0.01292  -0.02782   0.00000  -0.02782   2.42405
    R3        2.46350  -0.00910  -0.01953   0.00000  -0.01953   2.44397
    R4        3.21332  -0.11372  -0.45024   0.00000  -0.45024   2.76308
    R5        3.67438  -0.09184  -0.34844   0.00000  -0.34844   3.32594
    R6        1.88761  -0.00450  -0.00423   0.00000  -0.00423   1.88339
    R7        3.43292  -0.00290  -0.01103   0.00000  -0.01103   3.42190
    R8        2.46595   0.00061   0.00033   0.00000   0.00033   2.46627
    R9        2.47396   0.00194   0.00138   0.00000   0.00138   2.47533
   R10        2.46139   0.00027   0.00044   0.00000   0.00044   2.46183
    A1        1.90263   0.00623   0.04313   0.00000   0.03882   1.94146
    A2        1.91490   0.00329   0.04177   0.00000   0.04144   1.95635
    A3        1.94732  -0.00832  -0.06047   0.00000  -0.06256   1.88476
    A4        1.91396   0.00372   0.04201   0.00000   0.04162   1.95558
    A5        1.93032  -0.00982  -0.06442   0.00000  -0.06658   1.86373
    A6        1.85423   0.00502   0.00210   0.00000   0.00178   1.85600
    A7        1.83427   0.04059   0.10737   0.00000   0.10737   1.94164
    A8        2.22492  -0.02010  -0.05277   0.00000  -0.05277   2.17215
    A9        2.22400  -0.02048  -0.05461   0.00000  -0.05461   2.16939
   A10        1.76067  -0.00772  -0.03969   0.00000  -0.03969   1.72098
   A11        1.96491   0.00055   0.00485   0.00000   0.00484   1.96975
   A12        1.84920  -0.00082  -0.00783   0.00000  -0.00782   1.84138
   A13        1.97943   0.00234   0.00390   0.00000   0.00388   1.98331
   A14        1.89413   0.00003   0.00221   0.00000   0.00222   1.89635
   A15        1.88118  -0.00113   0.00001   0.00000  -0.00002   1.88116
   A16        1.89225  -0.00108  -0.00354   0.00000  -0.00354   1.88871
    D1       -1.11292   0.00205   0.01894   0.00000   0.01725  -1.09567
    D2        2.02748   0.00267   0.01656   0.00000   0.01487   2.04235
    D3        1.00807  -0.00251  -0.01592   0.00000  -0.01426   0.99380
    D4       -2.13472  -0.00189  -0.01830   0.00000  -0.01665  -2.15137
    D5        3.08392  -0.00040   0.00078   0.00000   0.00081   3.08473
    D6       -0.05886   0.00023  -0.00160   0.00000  -0.00157  -0.06044
    D7        1.69395   0.00287   0.01245   0.00000   0.01245   1.70641
    D8       -1.44645   0.00224   0.01483   0.00000   0.01483  -1.43162
    D9        1.01941   0.00052   0.00584   0.00000   0.00586   1.02527
   D10        3.08716   0.00034   0.00629   0.00000   0.00629   3.09345
   D11       -1.12246  -0.00020  -0.00095   0.00000  -0.00096  -1.12343
         Item               Value     Threshold  Converged?
 Maximum Force            0.113719     0.000450     NO 
 RMS     Force            0.025812     0.000300     NO 
 Maximum Displacement     0.354065     0.001800     NO 
 RMS     Displacement     0.164652     0.001200     NO 
 Predicted change in Energy=-8.032185D-02
 GradGradGradGradGradGradGradGradGradGradGradGradGradGradGradGradGradGrad

                          Input orientation:                          
 ---------------------------------------------------------------------
 Center     Atomic      Atomic             Coordinates (Angstroms)
 Number     Number       Type             X           Y           Z
 ---------------------------------------------------------------------
      1          6           0        1.757793    0.172712    0.003394
      2          9           0        1.209016    1.326142    0.100306
      3          9           0        2.158312   -0.248835    1.146779
      4          9           0        2.703662    0.156671   -0.878464
      5          7           0        0.744037   -0.771891   -0.463441
      6         16           0       -0.571056   -0.921184    0.696683
      7          6           0       -1.745300    0.219971   -0.076541
      8          9           0       -2.057976   -0.123687   -1.296133
      9          9           0       -2.824701    0.166358    0.663613
     10          9           0       -1.331844    1.455042   -0.104801
     11          1           0        0.788957   -1.265614   -1.328034
 ---------------------------------------------------------------------
                    Distance matrix (angstroms):
                    1          2          3          4          5
     1  C    0.000000
     2  F    1.280995   0.000000
     3  F    1.282749   2.115850   0.000000
     4  F    1.293291   2.135327   2.136224   0.000000
     5  N    1.462160   2.221656   2.206031   2.207850   0.000000
     6  S    2.664732   2.928275   2.846769   3.790335   1.760013
     7  C    3.504323   3.159568   4.117582   4.521101   2.707448
     8  F    4.041871   3.837353   4.874481   4.788136   2.994131
     9  F    4.629815   4.234771   5.023570   5.739416   3.858296
    10  F    3.346929   2.552382   4.080544   4.309250   3.065474
    11  H    2.186350   2.988947   3.005607   2.427159   0.996645
                    6          7          8          9         10
     6  S    0.000000
     7  C    1.810789   0.000000
     8  F    2.611178   1.305095   0.000000
     9  F    2.502550   1.309889   2.124287   0.000000
    10  F    2.620615   1.302745   2.106876   2.116551   0.000000
    11  H    2.463280   3.193064   3.067580   4.367577   3.660064
                   11
    11  H    0.000000
 Stoichiometry    C2HF6NS
 Framework group  C1[X(C2HF6NS)]
 Deg. of freedom    27
 Full point group                 C1      NOp   1
 Largest Abelian subgroup         C1      NOp   1
 Largest concise Abelian subgroup C1      NOp   1
                         Standard orientation:                         
 ---------------------------------------------------------------------
 Center     Atomic      Atomic             Coordinates (Angstroms)
 Number     Number       Type             X           Y           Z
 ---------------------------------------------------------------------
      1          6           0        1.804515   -0.132540   -0.040794
      2          9           0        1.242652   -1.028993   -0.763034
      3          9           0        2.217646    0.848815   -0.756135
      4          9           0        2.744616   -0.623201    0.699518
      5          7           0        0.799032    0.405784    0.874151
      6         16           0       -0.506430    1.193746   -0.004786
      7          6           0       -1.699347   -0.168547    0.003220
      8          9           0       -2.016008   -0.558048    1.207913
      9          9           0       -2.773079    0.302869   -0.580455
     10          9           0       -1.300876   -1.215624   -0.661607
     11          1           0        0.844092    0.333726    1.867166
 ---------------------------------------------------------------------
 Rotational constants (GHZ):      2.3698702      0.7211902      0.6844464
 Standard basis: 6-311+G(2df,p) (5D, 7F)
 There are   354 symmetry adapted basis functions of A   symmetry.
 Integral buffers will be    131072 words long.
 Raffenetti 1 integral format.
 Two-electron integral symmetry is turned on.
   354 basis functions,   542 primitive gaussians,   404 cartesian basis functions
    45 alpha electrons       45 beta electrons
       nuclear repulsion energy       755.6595772916 Hartrees.
 NAtoms=   11 NActive=   11 NUniq=   11 SFac= 7.50D-01 NAtFMM=   80 NAOKFM=F Big=F
 One-electron integrals computed using PRISM.
 NBasis=   354 RedAO= T  NBF=   354
 NBsUse=   354 1.00D-06 NBFU=   354
 Initial guess read from the read-write file.
 B after Tr=     0.000000    0.000000    0.000000
         Rot=    1.000000    0.000000    0.000000    0.000000 Ang=   0.00 deg.
 Initial guess orbital symmetries:
       Occupied  (A) (A) (A) (A) (A) (A) (A) (A) (A) (A) (A) (A)
                 (A) (A) (A) (A) (A) (A) (A) (A) (A) (A) (A) (A)
                 (A) (A) (A) (A) (A) (A) (A) (A) (A) (A) (A) (A)
                 (A) (A) (A) (A) (A) (A) (A) (A) (A)
       Virtual   (A) (A) (A) (A) (A) (A) (A) (A) (A) (A) (A) (A)
                 (A) (A) (A) (A) (A) (A) (A) (A) (A) (A) (A) (A)
                 (A) (A) (A) (A) (A) (A) (A) (A) (A) (A) (A) (A)
                 (A) (A) (A) (A) (A) (A) (A) (A) (A) (A) (A) (A)
                 (A) (A) (A) (A) (A) (A) (A) (A) (A) (A) (A) (A)
                 (A) (A) (A) (A) (A) (A) (A) (A) (A) (A) (A) (A)
                 (A) (A) (A) (A) (A) (A) (A) (A) (A) (A) (A) (A)
                 (A) (A) (A) (A) (A) (A) (A) (A) (A) (A) (A) (A)
                 (A) (A) (A) (A) (A) (A) (A) (A) (A) (A) (A) (A)
                 (A) (A) (A) (A) (A) (A) (A) (A) (A) (A) (A) (A)
                 (A) (A) (A) (A) (A) (A) (A) (A) (A) (A) (A) (A)
                 (A) (A) (A) (A) (A) (A) (A) (A) (A) (A) (A) (A)
                 (A) (A) (A) (A) (A) (A) (A) (A) (A) (A) (A) (A)
                 (A) (A) (A) (A) (A) (A) (A) (A) (A) (A) (A) (A)
                 (A) (A) (A) (A) (A) (A) (A) (A) (A) (A) (A) (A)
                 (A) (A) (A) (A) (A) (A) (A) (A) (A) (A) (A) (A)
                 (A) (A) (A) (A) (A) (A) (A) (A) (A) (A) (A) (A)
                 (A) (A) (A) (A) (A) (A) (A) (A) (A) (A) (A) (A)
                 (A) (A) (A) (A) (A) (A) (A) (A) (A) (A) (A) (A)
                 (A) (A) (A) (A) (A) (A) (A) (A) (A) (A) (A) (A)
                 (A) (A) (A) (A) (A) (A) (A) (A) (A) (A) (A) (A)
                 (A) (A) (A) (A) (A) (A) (A) (A) (A) (A) (A) (A)
                 (A) (A) (A) (A) (A) (A) (A) (A) (A) (A) (A) (A)
                 (A) (A) (A) (A) (A) (A) (A) (A) (A) (A) (A) (A)
                 (A) (A) (A) (A) (A) (A) (A) (A) (A) (A) (A) (A)
                 (A) (A) (A) (A) (A) (A) (A) (A) (A)
 Harris functional with IExCor=  205 diagonalized for initial guess.
 ExpMin= 4.05D-02 ExpMax= 9.34D+04 ExpMxC= 3.17D+03 IAcc=2 IRadAn=         0 AccDes= 0.00D+00
 HarFok:  IExCor=  205 AccDes= 0.00D+00 IRadAn=         0 IDoV= 1
 ScaDFX=  1.000000  1.000000  1.000000  1.000000
 FoFCou: FMM=F IPFlag=           0 FMFlag=      100000 FMFlg1=           0
         NFxFlg=           0 DoJE=T BraDBF=F KetDBF=T FulRan=T
         Omega=  0.000000  0.000000  1.000000  0.000000  0.000000 ICntrl=     500 IOpCl=  0
         NMat0=    1 NMatS0=    1 NMatT0=    0 NMatD0=    1 NMtDS0=    0 NMtDT0=    0
         I1Cent=           4 NGrid=           0.
 Petite list used in FoFCou.
 Requested convergence on RMS density matrix=1.00D-08 within 128 cycles.
 Requested convergence on MAX density matrix=1.00D-06.
 Requested convergence on             energy=1.00D-06.
 No special actions if energy rises.
 Initial convergence to 1.0D-05 achieved.  Increase integral accuracy.
 SCF Done:  E(RHF) =  -1125.17824549     A.U. after   15 cycles
             Convg  =    0.3670D-08             -V/T =  2.0002
 Calling FoFJK, ICntrl=      2127 FMM=F ISym2X=0 I1Cent= 0 IOpClX= 0 NMat=1 NMatS=1 NMatT=0.
 ***** Axes restored to original set *****
 -------------------------------------------------------------------
 Center     Atomic                   Forces (Hartrees/Bohr)
 Number     Number              X              Y              Z
 -------------------------------------------------------------------
      1        6          -0.060165601   -0.069260759   -0.048683461
      2        9           0.017976809    0.027937091    0.009517843
      3        9           0.025319777    0.013667333    0.021272635
      4        9           0.017807806    0.012580668    0.001902110
      5        7          -0.021665013    0.017809474    0.054166193
      6       16           0.028340581   -0.004474412   -0.047598970
      7        6           0.000720007   -0.002724818    0.007957873
      8        9           0.000149825   -0.000051194   -0.001881706
      9        9          -0.005060033    0.001107821    0.000154663
     10        9          -0.003674380    0.000745268   -0.002209337
     11        1           0.000250225    0.002663527    0.005402157
 -------------------------------------------------------------------
 Cartesian Forces:  Max     0.069260759 RMS     0.025049682

 GradGradGradGradGradGradGradGradGradGradGradGradGradGradGradGradGradGrad
 Berny optimization.
 Using GEDIIS/GDIIS optimizer.
 Internal  Forces:  Max     0.046639945 RMS     0.019348485
 Search for a local minimum.
 Step number   3 out of a maximum of   47
 All quantities printed in internal units (Hartrees-Bohrs-Radians)
 Mixed Optimization -- RFO/linear search
 Update second derivatives using D2CorX and points    2    3
 Use linear search instead of GDIIS.
     Eigenvalues ---    0.00228   0.00230   0.00230   0.00230   0.10557
     Eigenvalues ---    0.11942   0.12141   0.14296   0.14723   0.15776
     Eigenvalues ---    0.16000   0.21281   0.24636   0.24978   0.25000
     Eigenvalues ---    0.25000   0.25000   0.25000   0.25000   0.41132
     Eigenvalues ---    0.47708   0.64792   0.64952   0.65866   0.66236
     Eigenvalues ---    0.66532   0.697371000.000001000.000001000.00000
     Eigenvalues --- 1000.000001000.000001000.000001000.000001000.00000
     Eigenvalues --- 1000.000001000.00000
 RFO step:  Lambda=-5.18015634D-02 EMin= 2.28293387D-03
 Quartic linear search produced a step of  0.13332.
 Maximum step size (   0.505) exceeded in Quadratic search.
    -- Step size scaled by   0.979
 Iteration  1 RMS(Cart)=  0.20499456 RMS(Int)=  0.02932601
 Iteration  2 RMS(Cart)=  0.04141564 RMS(Int)=  0.00238988
 Iteration  3 RMS(Cart)=  0.00041035 RMS(Int)=  0.00236316
 Iteration  4 RMS(Cart)=  0.00000097 RMS(Int)=  0.00236316
 Variable       Old X    -DE/DX   Delta X   Delta X   Delta X     New X
                                 (Linear)    (Quad)   (Total)
    R1        2.42073   0.01817  -0.00359   0.01851   0.01491   2.43564
    R2        2.42405   0.02238  -0.00371   0.02448   0.02077   2.44481
    R3        2.44397   0.01157  -0.00260   0.01158   0.00897   2.45294
    R4        2.76308  -0.01419  -0.06003  -0.11714  -0.17717   2.58592
    R5        3.32594  -0.04357  -0.04646  -0.26434  -0.31080   3.01514
    R6        1.88339  -0.00599  -0.00056  -0.01232  -0.01288   1.87051
    R7        3.42190   0.00280  -0.00147   0.00749   0.00602   3.42791
    R8        2.46627   0.00174   0.00004   0.00253   0.00258   2.46885
    R9        2.47533   0.00421   0.00018   0.00638   0.00657   2.48190
   R10        2.46183  -0.00041   0.00006  -0.00047  -0.00041   2.46142
    A1        1.94146  -0.03305   0.00518  -0.08971  -0.09299   1.84847
    A2        1.95635  -0.02996   0.00553  -0.09834  -0.09617   1.86018
    A3        1.88476   0.04266  -0.00834   0.13362   0.11865   2.00341
    A4        1.95558  -0.02854   0.00555  -0.09496  -0.09239   1.86318
    A5        1.86373   0.03979  -0.00888   0.12296   0.10756   1.97130
    A6        1.85600   0.01878   0.00024   0.05625   0.05298   1.90898
    A7        1.94164   0.04664   0.01432   0.18986   0.20342   2.14506
    A8        2.17215  -0.02356  -0.00704  -0.09587  -0.10367   2.06848
    A9        2.16939  -0.02307  -0.00728  -0.09375  -0.10179   2.06759
   A10        1.72098   0.02490  -0.00529   0.07578   0.07049   1.79147
   A11        1.96975  -0.00309   0.00065  -0.01112  -0.01046   1.95929
   A12        1.84138   0.00438  -0.00104   0.01418   0.01302   1.85439
   A13        1.98331   0.00724   0.00052   0.02541   0.02584   2.00915
   A14        1.89635  -0.00228   0.00030  -0.00875  -0.00845   1.88789
   A15        1.88116  -0.00349   0.00000  -0.01330  -0.01328   1.86788
   A16        1.88871  -0.00302  -0.00047  -0.00714  -0.00783   1.88088
    D1       -1.09567  -0.00448   0.00230  -0.05083  -0.05033  -1.14600
    D2        2.04235  -0.00055   0.00198   0.02296   0.02309   2.06544
    D3        0.99380   0.00101  -0.00190  -0.01826  -0.01819   0.97562
    D4       -2.15137   0.00494  -0.00222   0.05554   0.05524  -2.09613
    D5        3.08473  -0.00217   0.00011  -0.03688  -0.03686   3.04787
    D6       -0.06044   0.00176  -0.00021   0.03691   0.03656  -0.02387
    D7        1.70641   0.00912   0.00166   0.16394   0.16563   1.87203
    D8       -1.43162   0.00520   0.00198   0.09029   0.09224  -1.33937
    D9        1.02527  -0.00097   0.00078  -0.02068  -0.01992   1.00535
   D10        3.09345  -0.00265   0.00084  -0.02842  -0.02776   3.06569
   D11       -1.12343   0.00049  -0.00013  -0.01394  -0.01387  -1.13730
         Item               Value     Threshold  Converged?
 Maximum Force            0.046640     0.000450     NO 
 RMS     Force            0.019348     0.000300     NO 
 Maximum Displacement     0.674463     0.001800     NO 
 RMS     Displacement     0.201473     0.001200     NO 
 Predicted change in Energy=-3.726734D-02
 GradGradGradGradGradGradGradGradGradGradGradGradGradGradGradGradGradGrad

                          Input orientation:                          
 ---------------------------------------------------------------------
 Center     Atomic      Atomic             Coordinates (Angstroms)
 Number     Number       Type             X           Y           Z
 ---------------------------------------------------------------------
      1          6           0        1.792664    0.113601    0.003237
      2          9           0        1.565926    1.373048    0.156894
      3          9           0        2.355706   -0.281637    1.098925
      4          9           0        2.684329    0.009446   -0.934307
      5          7           0        0.693886   -0.630595   -0.330527
      6         16           0       -0.547011   -0.832757    0.651852
      7          6           0       -1.830134    0.197013   -0.112127
      8          9           0       -2.076504   -0.153810   -1.346250
      9          9           0       -2.921712    0.007488    0.593182
     10          9           0       -1.580097    1.475282   -0.121776
     11          1           0        0.693847   -1.111394   -1.195741
 ---------------------------------------------------------------------
                    Distance matrix (angstroms):
                    1          2          3          4          5
     1  C    0.000000
     2  F    1.288886   0.000000
     3  F    1.293739   2.061348   0.000000
     4  F    1.298038   2.073875   2.080085   0.000000
     5  N    1.368407   2.238888   2.219629   2.176251   0.000000
     6  S    2.605835   3.094360   2.988206   3.696859   1.595545
     7  C    3.625594   3.603978   4.383721   4.592553   2.665203
     8  F    4.106469   4.225877   5.063567   4.781410   2.988992
     9  F    4.752330   4.711051   5.309474   5.810415   3.785887
    10  F    3.639412   3.159995   4.479667   4.581944   3.106331
    11  H    2.036064   2.960168   2.952247   2.299271   0.989830
                    6          7          8          9         10
     6  S    0.000000
     7  C    1.813972   0.000000
     8  F    2.606287   1.306459   0.000000
     9  F    2.519655   1.313364   2.121742   0.000000
    10  F    2.644392   1.302529   2.097546   2.113177   0.000000
    11  H    2.242983   3.042471   2.935041   4.186217   3.607647
                   11
    11  H    0.000000
 Stoichiometry    C2HF6NS
 Framework group  C1[X(C2HF6NS)]
 Deg. of freedom    27
 Full point group                 C1      NOp   1
 Largest Abelian subgroup         C1      NOp   1
 Largest concise Abelian subgroup C1      NOp   1
                         Standard orientation:                         
 ---------------------------------------------------------------------
 Center     Atomic      Atomic             Coordinates (Angstroms)
 Number     Number       Type             X           Y           Z
 ---------------------------------------------------------------------
      1          6           0       -1.826456    0.095364    0.008150
      2          9           0       -1.593766    1.043709   -0.833114
      3          9           0       -2.422122   -0.836238   -0.663461
      4          9           0       -2.693241    0.557401    0.856743
      5          7           0       -0.725113   -0.355106    0.683915
      6         16           0        0.487070   -1.103009   -0.035124
      7          6           0        1.798694    0.149750   -0.008060
      8          9           0        2.075517    0.550307    1.204275
      9          9           0        2.869217   -0.428264   -0.502836
     10          9           0        1.559371    1.216152   -0.716647
     11          1           0       -0.705557   -0.264408    1.669387
 ---------------------------------------------------------------------
 Rotational constants (GHZ):      2.4619540      0.6621575      0.6360290
 Standard basis: 6-311+G(2df,p) (5D, 7F)
 There are   354 symmetry adapted basis functions of A   symmetry.
 Integral buffers will be    131072 words long.
 Raffenetti 1 integral format.
 Two-electron integral symmetry is turned on.
   354 basis functions,   542 primitive gaussians,   404 cartesian basis functions
    45 alpha electrons       45 beta electrons
       nuclear repulsion energy       749.8653287409 Hartrees.
 NAtoms=   11 NActive=   11 NUniq=   11 SFac= 7.50D-01 NAtFMM=   80 NAOKFM=F Big=F
 One-electron integrals computed using PRISM.
 NBasis=   354 RedAO= T  NBF=   354
 NBsUse=   354 1.00D-06 NBFU=   354
 Initial guess read from the read-write file.
 B after Tr=     0.000000    0.000000    0.000000
         Rot=    1.000000    0.000000    0.000000    0.000000 Ang=   0.00 deg.
 Initial guess orbital symmetries:
       Occupied  (A) (A) (A) (A) (A) (A) (A) (A) (A) (A) (A) (A)
                 (A) (A) (A) (A) (A) (A) (A) (A) (A) (A) (A) (A)
                 (A) (A) (A) (A) (A) (A) (A) (A) (A) (A) (A) (A)
                 (A) (A) (A) (A) (A) (A) (A) (A) (A)
       Virtual   (A) (A) (A) (A) (A) (A) (A) (A) (A) (A) (A) (A)
                 (A) (A) (A) (A) (A) (A) (A) (A) (A) (A) (A) (A)
                 (A) (A) (A) (A) (A) (A) (A) (A) (A) (A) (A) (A)
                 (A) (A) (A) (A) (A) (A) (A) (A) (A) (A) (A) (A)
                 (A) (A) (A) (A) (A) (A) (A) (A) (A) (A) (A) (A)
                 (A) (A) (A) (A) (A) (A) (A) (A) (A) (A) (A) (A)
                 (A) (A) (A) (A) (A) (A) (A) (A) (A) (A) (A) (A)
                 (A) (A) (A) (A) (A) (A) (A) (A) (A) (A) (A) (A)
                 (A) (A) (A) (A) (A) (A) (A) (A) (A) (A) (A) (A)
                 (A) (A) (A) (A) (A) (A) (A) (A) (A) (A) (A) (A)
                 (A) (A) (A) (A) (A) (A) (A) (A) (A) (A) (A) (A)
                 (A) (A) (A) (A) (A) (A) (A) (A) (A) (A) (A) (A)
                 (A) (A) (A) (A) (A) (A) (A) (A) (A) (A) (A) (A)
                 (A) (A) (A) (A) (A) (A) (A) (A) (A) (A) (A) (A)
                 (A) (A) (A) (A) (A) (A) (A) (A) (A) (A) (A) (A)
                 (A) (A) (A) (A) (A) (A) (A) (A) (A) (A) (A) (A)
                 (A) (A) (A) (A) (A) (A) (A) (A) (A) (A) (A) (A)
                 (A) (A) (A) (A) (A) (A) (A) (A) (A) (A) (A) (A)
                 (A) (A) (A) (A) (A) (A) (A) (A) (A) (A) (A) (A)
                 (A) (A) (A) (A) (A) (A) (A) (A) (A) (A) (A) (A)
                 (A) (A) (A) (A) (A) (A) (A) (A) (A) (A) (A) (A)
                 (A) (A) (A) (A) (A) (A) (A) (A) (A) (A) (A) (A)
                 (A) (A) (A) (A) (A) (A) (A) (A) (A) (A) (A) (A)
                 (A) (A) (A) (A) (A) (A) (A) (A) (A) (A) (A) (A)
                 (A) (A) (A) (A) (A) (A) (A) (A) (A) (A) (A) (A)
                 (A) (A) (A) (A) (A) (A) (A) (A) (A)
 Harris functional with IExCor=  205 diagonalized for initial guess.
 ExpMin= 4.05D-02 ExpMax= 9.34D+04 ExpMxC= 3.17D+03 IAcc=2 IRadAn=         0 AccDes= 0.00D+00
 HarFok:  IExCor=  205 AccDes= 0.00D+00 IRadAn=         0 IDoV= 1
 ScaDFX=  1.000000  1.000000  1.000000  1.000000
 FoFCou: FMM=F IPFlag=           0 FMFlag=      100000 FMFlg1=           0
         NFxFlg=           0 DoJE=T BraDBF=F KetDBF=T FulRan=T
         Omega=  0.000000  0.000000  1.000000  0.000000  0.000000 ICntrl=     500 IOpCl=  0
         NMat0=    1 NMatS0=    1 NMatT0=    0 NMatD0=    1 NMtDS0=    0 NMtDT0=    0
         I1Cent=           4 NGrid=           0.
 Petite list used in FoFCou.
 Requested convergence on RMS density matrix=1.00D-08 within 128 cycles.
 Requested convergence on MAX density matrix=1.00D-06.
 Requested convergence on             energy=1.00D-06.
 No special actions if energy rises.
 Initial convergence to 1.0D-05 achieved.  Increase integral accuracy.
 SCF Done:  E(RHF) =  -1125.19403885     A.U. after   15 cycles
             Convg  =    0.2137D-08             -V/T =  1.9998
 Calling FoFJK, ICntrl=      2127 FMM=F ISym2X=0 I1Cent= 0 IOpClX= 0 NMat=1 NMatS=1 NMatT=0.
 ***** Axes restored to original set *****
 -------------------------------------------------------------------
 Center     Atomic                   Forces (Hartrees/Bohr)
 Number     Number              X              Y              Z
 -------------------------------------------------------------------
      1        6           0.026270652    0.009793117   -0.005024670
      2        9          -0.014987486    0.025456819    0.003642940
      3        9           0.005251547   -0.011898887    0.024145701
      4        9           0.009172123   -0.007497065   -0.020292702
      5        7           0.002911505   -0.008004087   -0.029531667
      6       16          -0.038924160   -0.007637448    0.028512233
      7        6          -0.005999490    0.002731544    0.006539536
      8        9           0.001569185   -0.002571805   -0.004530913
      9        9           0.001749621   -0.001832110   -0.000190290
     10        9           0.005013223    0.002585506    0.000303659
     11        1           0.007973279   -0.001125584   -0.003573827
 -------------------------------------------------------------------
 Cartesian Forces:  Max     0.038924160 RMS     0.014103924

 GradGradGradGradGradGradGradGradGradGradGradGradGradGradGradGradGradGrad
 Berny optimization.
 Using GEDIIS/GDIIS optimizer.
 Internal  Forces:  Max     0.048171792 RMS     0.012923426
 Search for a local minimum.
 Step number   4 out of a maximum of   47
 All quantities printed in internal units (Hartrees-Bohrs-Radians)
 Mixed Optimization -- RFO/linear search
 Update second derivatives using D2CorX and points    3    4
 DE= -1.58D-02 DEPred=-3.73D-02 R= 4.24D-01
 Trust test= 4.24D-01 RLast= 5.47D-01 DXMaxT set to 5.05D-01
 Use linear search instead of GDIIS.
     Eigenvalues ---    0.00230   0.00230   0.00237   0.00259   0.09945
     Eigenvalues ---    0.10754   0.14075   0.14311   0.15599   0.15792
     Eigenvalues ---    0.19159   0.24387   0.24635   0.24984   0.24997
     Eigenvalues ---    0.25000   0.25000   0.25000   0.27922   0.39200
     Eigenvalues ---    0.47768   0.64776   0.65048   0.65873   0.66014
     Eigenvalues ---    0.66534   0.672711000.000001000.000001000.00000
     Eigenvalues --- 1000.000001000.000001000.000001000.000001000.00000
     Eigenvalues --- 1000.000001000.00000
 RFO step:  Lambda=-8.11238893D-03 EMin= 2.29987930D-03
 Quartic linear search produced a step of -0.30093.
 Iteration  1 RMS(Cart)=  0.12355807 RMS(Int)=  0.00780700
 Iteration  2 RMS(Cart)=  0.01394119 RMS(Int)=  0.00057746
 Iteration  3 RMS(Cart)=  0.00010531 RMS(Int)=  0.00057247
 Iteration  4 RMS(Cart)=  0.00000001 RMS(Int)=  0.00057247
 Variable       Old X    -DE/DX   Delta X   Delta X   Delta X     New X
                                 (Linear)    (Quad)   (Total)
    R1        2.43564   0.02795  -0.00449   0.03753   0.03305   2.46869
    R2        2.44481   0.02637  -0.00625   0.03865   0.03240   2.47721
    R3        2.45294   0.02156  -0.00270   0.02852   0.02582   2.47875
    R4        2.58592   0.02987   0.05331   0.02260   0.07592   2.66183
    R5        3.01514   0.04817   0.09353   0.05938   0.15290   3.16805
    R6        1.87051   0.00367   0.00388  -0.00036   0.00352   1.87403
    R7        3.42791  -0.00203  -0.00181  -0.00271  -0.00452   3.42339
    R8        2.46885   0.00467  -0.00078   0.00597   0.00520   2.47405
    R9        2.48190  -0.00129  -0.00198   0.00133  -0.00065   2.48125
   R10        2.46142   0.00350   0.00012   0.00345   0.00357   2.46499
    A1        1.84847   0.00912   0.02798  -0.02718   0.00285   1.85132
    A2        1.86018   0.01266   0.02894  -0.01053   0.01912   1.87930
    A3        2.00341  -0.01235  -0.03570   0.01726  -0.01693   1.98648
    A4        1.86318   0.01058   0.02780  -0.01178   0.01675   1.87993
    A5        1.97130  -0.00690  -0.03237   0.02860  -0.00223   1.96907
    A6        1.90898  -0.01004  -0.01594  -0.00070  -0.01586   1.89312
    A7        2.14506   0.00340  -0.06121   0.10014   0.03886   2.18392
    A8        2.06848  -0.00859   0.03120  -0.08114  -0.04999   2.01849
    A9        2.06759   0.00521   0.03063  -0.02285   0.00768   2.07527
   A10        1.79147  -0.00603  -0.02121   0.01552  -0.00569   1.78578
   A11        1.95929  -0.00352   0.00315  -0.01621  -0.01317   1.94612
   A12        1.85439  -0.00045  -0.00392   0.00755   0.00367   1.85806
   A13        2.00915  -0.00595  -0.00777  -0.00581  -0.01364   1.99551
   A14        1.88789   0.00278   0.00254   0.00494   0.00748   1.89537
   A15        1.86788   0.00282   0.00400  -0.00231   0.00152   1.86939
   A16        1.88088   0.00515   0.00236   0.01389   0.01631   1.89720
    D1       -1.14600   0.00159   0.01515  -0.02827  -0.01247  -1.15848
    D2        2.06544   0.00089  -0.00695   0.03864   0.03202   2.09746
    D3        0.97562  -0.00127   0.00547  -0.02855  -0.02340   0.95222
    D4       -2.09613  -0.00196  -0.01662   0.03836   0.02109  -2.07503
    D5        3.04787   0.00088   0.01109  -0.02572  -0.01448   3.03339
    D6       -0.02387   0.00019  -0.01100   0.04119   0.03002   0.00614
    D7        1.87203  -0.00556  -0.04984  -0.13048  -0.17985   1.69218
    D8       -1.33937  -0.00539  -0.02776  -0.19957  -0.22779  -1.56717
    D9        1.00535  -0.00188   0.00599  -0.04447  -0.03836   0.96699
   D10        3.06569  -0.00072   0.00835  -0.04270  -0.03428   3.03141
   D11       -1.13730   0.00188   0.00418  -0.02345  -0.01946  -1.15676
         Item               Value     Threshold  Converged?
 Maximum Force            0.048172     0.000450     NO 
 RMS     Force            0.012923     0.000300     NO 
 Maximum Displacement     0.354354     0.001800     NO 
 RMS     Displacement     0.133687     0.001200     NO 
 Predicted change in Energy=-8.685741D-03
 GradGradGradGradGradGradGradGradGradGradGradGradGradGradGradGradGradGrad

                          Input orientation:                          
 ---------------------------------------------------------------------
 Center     Atomic      Atomic             Coordinates (Angstroms)
 Number     Number       Type             X           Y           Z
 ---------------------------------------------------------------------
      1          6           0        1.791505    0.135218   -0.028583
      2          9           0        1.485642    1.404511    0.015655
      3          9           0        2.331739   -0.148564    1.131602
      4          9           0        2.714673   -0.020211   -0.947365
      5          7           0        0.703057   -0.701506   -0.343657
      6         16           0       -0.641203   -0.942899    0.628561
      7          6           0       -1.841857    0.215413   -0.077533
      8          9           0       -2.015367    0.005532   -1.358108
      9          9           0       -2.979106   -0.004695    0.540724
     10          9           0       -1.524379    1.472468    0.065740
     11          1           0        0.806196   -1.249584   -1.163674
 ---------------------------------------------------------------------
                    Distance matrix (angstroms):
                    1          2          3          4          5
     1  C    0.000000
     2  F    1.306374   0.000000
     3  F    1.310883   2.091234   0.000000
     4  F    1.311700   2.113707   2.117833   0.000000
     5  N    1.408580   2.275270   2.265997   2.207991   0.000000
     6  S    2.740847   3.226369   3.118077   3.820576   1.676459
     7  C    3.634576   3.534811   4.360434   4.644791   2.718114
     8  F    4.034443   4.012659   5.011958   4.747909   2.986442
     9  F    4.806497   4.711214   5.345550   5.885046   3.850454
    10  F    3.576621   3.011205   4.316648   4.606954   3.139305
    11  H    2.043757   2.982731   2.967797   2.280445   0.991693
                    6          7          8          9         10
     6  S    0.000000
     7  C    1.811580   0.000000
     8  F    2.595130   1.309209   0.000000
     9  F    2.520661   1.313021   2.129427   0.000000
    10  F    2.632634   1.304418   2.102454   2.126935   0.000000
    11  H    2.324033   3.215292   3.094242   4.333963   3.788483
                   11
    11  H    0.000000
 Stoichiometry    C2HF6NS
 Framework group  C1[X(C2HF6NS)]
 Deg. of freedom    27
 Full point group                 C1      NOp   1
 Largest Abelian subgroup         C1      NOp   1
 Largest concise Abelian subgroup C1      NOp   1
                         Standard orientation:                         
 ---------------------------------------------------------------------
 Center     Atomic      Atomic             Coordinates (Angstroms)
 Number     Number       Type             X           Y           Z
 ---------------------------------------------------------------------
      1          6           0       -1.843499    0.093953    0.005757
      2          9           0       -1.535572    1.194293   -0.627524
      3          9           0       -2.390885   -0.696547   -0.885250
      4          9           0       -2.761674    0.389627    0.894626
      5          7           0       -0.754798   -0.503391    0.670594
      6         16           0        0.583430   -1.176704   -0.081942
      7          6           0        1.790224    0.172129   -0.003708
      8          9           0        1.970678    0.583935    1.225877
      9          9           0        2.923510   -0.316147   -0.452343
     10          9           0        1.474232    1.218067   -0.716217
     11          1           0       -0.854244   -0.604550    1.652089
 ---------------------------------------------------------------------
 Rotational constants (GHZ):      2.3687588      0.6618932      0.6325181
 Standard basis: 6-311+G(2df,p) (5D, 7F)
 There are   354 symmetry adapted basis functions of A   symmetry.
 Integral buffers will be    131072 words long.
 Raffenetti 1 integral format.
 Two-electron integral symmetry is turned on.
   354 basis functions,   542 primitive gaussians,   404 cartesian basis functions
    45 alpha electrons       45 beta electrons
[...]
 Cartesian Forces:  Max     0.000038163 RMS     0.000015297

 GradGradGradGradGradGradGradGradGradGradGradGradGradGradGradGradGradGrad
 Berny optimization.
 Internal  Forces:  Max     0.000038050 RMS     0.000012183
 Search for a local minimum.
 Step number   1 out of a maximum of    2
 All quantities printed in internal units (Hartrees-Bohrs-Radians)
 Second derivative matrix not updated -- analytic derivatives used.
     Eigenvalues ---    0.00272   0.00787   0.00900   0.02493   0.13623
     Eigenvalues ---    0.16482   0.16610   0.17090   0.19954   0.20308
     Eigenvalues ---    0.21872   0.25132   0.26399   0.28662   0.30055
     Eigenvalues ---    0.32671   0.33005   0.40175   0.43298   0.47589
     Eigenvalues ---    0.47831   0.49894   0.50893   0.52138   0.55262
     Eigenvalues ---    0.65997   0.671661000.000001000.000001000.00000
     Eigenvalues --- 1000.000001000.000001000.000001000.000001000.00000
     Eigenvalues --- 1000.000001000.00000
 Angle between quadratic step and forces=  41.31 degrees.
 Linear search not attempted -- first point.
 Iteration  1 RMS(Cart)=  0.00004533 RMS(Int)=  0.00000000
 Iteration  2 RMS(Cart)=  0.00000000 RMS(Int)=  0.00000000
 Variable       Old X    -DE/DX   Delta X   Delta X   Delta X     New X
                                 (Linear)    (Quad)   (Total)
    R1        2.46034   0.00004   0.00000   0.00008   0.00008   2.46042
    R2        2.48910  -0.00004   0.00000  -0.00008  -0.00008   2.48901
    R3        2.47281   0.00001   0.00000   0.00000   0.00000   2.47281
    R4        2.65360   0.00001   0.00000   0.00002   0.00002   2.65362
    R5        3.15532   0.00001   0.00000   0.00004   0.00004   3.15536
    R6        1.88140   0.00000   0.00000   0.00000   0.00000   1.88141
    R7        3.41947   0.00000   0.00000   0.00001   0.00001   3.41948
    R8        2.47119  -0.00002   0.00000  -0.00005  -0.00005   2.47114
    R9        2.47536   0.00001   0.00000   0.00001   0.00001   2.47537
   R10        2.46360   0.00001   0.00000   0.00003   0.00003   2.46363
    A1        1.86662  -0.00001   0.00000  -0.00006  -0.00006   1.86656
    A2        1.90550   0.00001   0.00000   0.00003   0.00003   1.90552
    A3        1.94721   0.00001   0.00000   0.00000   0.00000   1.94721
    A4        1.87194   0.00001   0.00000   0.00006   0.00006   1.87200
    A5        1.97909  -0.00002   0.00000  -0.00004  -0.00004   1.97906
    A6        1.89115   0.00000   0.00000   0.00001   0.00001   1.89116
    A7        2.10134   0.00001   0.00000   0.00003   0.00003   2.10136
    A8        1.97857   0.00000   0.00000   0.00001   0.00001   1.97857
    A9        2.02731  -0.00001   0.00000  -0.00007  -0.00007   2.02724
   A10        1.72977   0.00001   0.00000   0.00002   0.00002   1.72979
   A11        1.96030  -0.00001   0.00000  -0.00002  -0.00002   1.96028
   A12        1.86031   0.00000   0.00000   0.00001   0.00001   1.86033
   A13        1.97636   0.00000   0.00000  -0.00001  -0.00001   1.97635
   A14        1.89350   0.00000   0.00000   0.00002   0.00002   1.89352
   A15        1.87548   0.00000   0.00000  -0.00001  -0.00001   1.87547
   A16        1.89573   0.00001   0.00000   0.00001   0.00001   1.89574
    D1       -1.06166   0.00001   0.00000   0.00003   0.00003  -1.06163
    D2        2.70633   0.00001   0.00000   0.00011   0.00011   2.70644
    D3        1.04728  -0.00001   0.00000  -0.00007  -0.00007   1.04720
    D4       -1.46792  -0.00001   0.00000   0.00001   0.00001  -1.46791
    D5        3.12333   0.00000   0.00000  -0.00001  -0.00001   3.12332
    D6        0.60813   0.00000   0.00000   0.00007   0.00007   0.60820
    D7        1.93806   0.00000   0.00000  -0.00002  -0.00002   1.93804
    D8       -1.84648   0.00000   0.00000  -0.00008  -0.00008  -1.84656
    D9        1.03821  -0.00001   0.00000   0.00000   0.00000   1.03821
   D10        3.10963   0.00000   0.00000   0.00002   0.00002   3.10965
   D11       -1.09019   0.00001   0.00000   0.00004   0.00004  -1.09015
         Item               Value     Threshold  Converged?
 Maximum Force            0.000038     0.000450     YES
 RMS     Force            0.000012     0.000300     YES
 Maximum Displacement     0.000121     0.001800     YES
 RMS     Displacement     0.000045     0.001200     YES
 Predicted change in Energy=-7.278189D-09
 Optimization completed.
    -- Stationary point found.
                           ----------------------------
                           !   Optimized Parameters   !
                           ! (Angstroms and Degrees)  !
 --------------------------                            --------------------------
 ! Name  Definition              Value          Derivative Info.                !
 --------------------------------------------------------------------------------
 ! R1    R(1,2)                  1.302          -DE/DX =    0.0                 !
 ! R2    R(1,3)                  1.3172         -DE/DX =    0.0                 !
 ! R3    R(1,4)                  1.3086         -DE/DX =    0.0                 !
 ! R4    R(1,5)                  1.4042         -DE/DX =    0.0                 !
 ! R5    R(5,6)                  1.6697         -DE/DX =    0.0                 !
 ! R6    R(5,11)                 0.9956         -DE/DX =    0.0                 !
 ! R7    R(6,7)                  1.8095         -DE/DX =    0.0                 !
 ! R8    R(7,8)                  1.3077         -DE/DX =    0.0                 !
 ! R9    R(7,9)                  1.3099         -DE/DX =    0.0                 !
 ! R10   R(7,10)                 1.3037         -DE/DX =    0.0                 !
 ! A1    A(2,1,3)              106.9492         -DE/DX =    0.0                 !
 ! A2    A(2,1,4)              109.1769         -DE/DX =    0.0                 !
 ! A3    A(2,1,5)              111.5669         -DE/DX =    0.0                 !
 ! A4    A(3,1,4)              107.2542         -DE/DX =    0.0                 !
 ! A5    A(3,1,5)              113.3938         -DE/DX =    0.0                 !
 ! A6    A(4,1,5)              108.3549         -DE/DX =    0.0                 !
 ! A7    A(1,5,6)              120.3977         -DE/DX =    0.0                 !
 ! A8    A(1,5,11)             113.3635         -DE/DX =    0.0                 !
 ! A9    A(6,5,11)             116.1564         -DE/DX =    0.0                 !
 ! A10   A(5,6,7)               99.1084         -DE/DX =    0.0                 !
 ! A11   A(6,7,8)              112.3169         -DE/DX =    0.0                 !
 ! A12   A(6,7,9)              106.5881         -DE/DX =    0.0                 !
 ! A13   A(6,7,10)             113.2371         -DE/DX =    0.0                 !
 ! A14   A(8,7,9)              108.4896         -DE/DX =    0.0                 !
 ! A15   A(8,7,10)             107.4574         -DE/DX =    0.0                 !
 ! A16   A(9,7,10)             108.6171         -DE/DX =    0.0                 !
 ! D1    D(2,1,5,6)            -60.8286         -DE/DX =    0.0                 !
 ! D2    D(2,1,5,11)           155.0613         -DE/DX =    0.0                 !
 ! D3    D(3,1,5,6)             60.0045         -DE/DX =    0.0                 !
 ! D4    D(3,1,5,11)           -84.1057         -DE/DX =    0.0                 !
 ! D5    D(4,1,5,6)            178.9536         -DE/DX =    0.0                 !
 ! D6    D(4,1,5,11)            34.8435         -DE/DX =    0.0                 !
 ! D7    D(1,5,6,7)            111.0427         -DE/DX =    0.0                 !
 ! D8    D(11,5,6,7)          -105.7957         -DE/DX =    0.0                 !
 ! D9    D(5,6,7,8)             59.4852         -DE/DX =    0.0                 !
 ! D10   D(5,6,7,9)            178.1687         -DE/DX =    0.0                 !
 ! D11   D(5,6,7,10)           -62.4634         -DE/DX =    0.0                 !
 --------------------------------------------------------------------------------
 GradGradGradGradGradGradGradGradGradGradGradGradGradGradGradGradGradGrad

 1\1\GINC-RESEARCH024\Freq\RHF\6-311+G(2df,p)\C2H1F6N1S1\RMCCULL2HS2\29
 -May-2015\0\\#N Geom=AllCheck Guess=TCheck SCRF=Check GenChk RHF/6-311
 +G(2df,p) Freq\\title\\0,1\C,1.7947366858,0.14255427,-0.0202538513\F,1
 .4929260141,1.3623894076,0.3203385786\F,2.4309135887,-0.394820986,1.00
 02618529\F,2.6303495901,0.1715725449,-1.0268446746\N,0.6564478871,-0.5
 808473886,-0.4112025038\S,-0.598810916,-0.8258263124,0.6622470242\C,-1
 .8534088381,0.2163541068,-0.1214303191\F,-2.1220508121,-0.1637900282,-
 1.3434749006\F,-2.9410124881,0.0980922005,0.5989740521\F,-1.5199493485
 ,1.4758066408,-0.1680040959\H,0.8607587149,-1.3358001745,-1.0272503595
 \\Version=EM64L-G09RevA.02\State=1-A\HF=-1125.201548\RMSD=9.677e-10\RM
 SF=1.530e-05\ZeroPoint=0.0519343\Thermal=0.0609405\Dipole=0.104374,-0.
 7679922,-0.2086591\DipoleDeriv=2.3865904,0.0897105,-0.0279865,0.339127
 2,1.8335599,-0.1075933,0.2826979,0.0007458,1.75583,-0.4345249,0.029927
 9,0.0118382,0.0101116,-0.852449,-0.1197755,-0.022917,-0.1491742,-0.339
 7528,-0.7049076,0.0837433,-0.2593836,0.0672242,-0.4309698,0.1635074,-0
 .3674419,0.1568517,-0.6740477,-0.8141782,-0.0593622,0.3695417,-0.10160
 64,-0.3364682,0.044513,0.3239456,0.0123737,-0.6776175,-0.9952915,-0.06
 36553,-0.0256463,-0.2847598,-0.4909897,0.1297203,0.1140278,0.0484145,-
 0.5668409,0.4158723,0.0614421,-0.2440495,0.0871371,0.0581801,-0.122689
 7,-0.4020035,-0.123672,0.301186,2.0189911,-0.1777252,0.103631,-0.24257
 93,1.7124963,-0.021115,0.1795167,-0.0314064,1.637144,-0.5141805,0.0310
 438,-0.2542602,0.0520896,-0.3671519,-0.0794898,-0.3357701,-0.0731686,-
 0.9307214,-1.0185241,0.0336234,0.288416,0.0875743,-0.32888,0.0139027,0
 .2449099,0.0302942,-0.4640614,-0.4260163,0.0076972,-0.0375662,0.060796
 2,-1.0321322,0.0936363,-0.0691353,0.1167679,-0.3189583,0.0861694,-0.03
 64455,0.0754654,-0.0751147,0.2348045,0.0053835,0.0521698,0.0119733,0.2
 778402\Polar=58.7597549,-1.0163602,45.4650165,-2.1694693,-1.1703118,46
 .0450663\PolarDeriv=0.8109495,0.3673161,1.9297016,-0.5281606,0.4574749
 ,0.6388116,1.6383345,0.6410912,-0.9536374,0.0932965,-0.7190416,1.57915
 19,1.3017304,0.7704166,-0.1215474,-2.2689135,0.0236624,0.8167955,-0.40
 41354,1.3703048,-0.50272,0.4078203,-0.0328335,-0.3284532,0.7233352,0.1
 188738,5.1158968,0.2727162,0.7126444,0.3248301,0.2691979,0.1411607,0.6
 814055,-0.047859,1.3145858,0.5613313,3.5405806,-0.5757883,0.2925976,2.
 1511782,-0.2681074,0.7034715,-0.7406714,1.1469449,-1.2695414,-0.476771
 3,1.1655714,-0.79756,2.2166744,-0.2840576,0.493685,2.2185773,-0.847077
 7,3.0469436,4.4377407,0.4218683,0.1594428,-2.2880916,-0.169141,1.11638
 89,0.1203322,1.0610216,0.1294137,-0.0651135,-1.0897833,0.0334588,-2.41
 34272,-0.2167899,-0.4199594,2.4685625,0.3302903,-3.7530194,0.4790195,-
 0.3122384,-0.7485435,-1.1312437,-0.6299166,-0.5175752,0.6380643,-0.540
 4595,0.9071067,-1.3885683,0.7759321,2.1366679,-2.6556697,-1.4489433,0.
 0687285,1.1273794,1.6683627,-1.9602481,0.3290517,-3.8943108,1.4129649,
 4.7500612,-0.6940576,-0.2511131,-4.058102,1.1852466,-6.1100727,-1.0310
 713,2.9470807,-2.3897249,5.4553706,-0.8198713,2.8267985,-0.8050564,-2.
 9404413,6.8142594,-3.8191041,2.1569238,-4.26414,-2.5396016,1.2598132,-
 1.4861371,3.5281983,-2.2495665,-0.0318814,1.5639563,-0.5488952,2.73886
 37,-3.033362,1.1516646,-1.7945628,-0.0511396,1.2167023,0.5880286,-1.32
 84641,-0.2407688,0.20286,-1.7373617,-0.0975809,-0.4942659,-0.105013,-0
 .6510026,-0.5677781,-0.152634,-1.4173464,-0.8633005,-1.1092126,-0.2261
 711,0.0623528,-1.7729857,-0.5671039,-5.0725996,-5.7507698,-0.0599038,0
 .2775993,2.2001606,-0.2535281,-0.3882539,-0.0544449,-1.3609317,-0.0801
 401,0.0316401,0.6308514,-0.1708353,1.6739834,0.0782124,0.0746844,-2.15
 35833,0.1761241,1.7353605,0.3722961,1.5843645,0.810784,-0.188925,-0.05
 44173,0.270106,0.3040191,-0.2638397,5.8839523,-0.1904971,-0.3728927,0.
 0539938,-0.0733763,0.2237468,-0.1665081,0.0681862,1.3823176,-0.1456334
 ,1.3328354,-0.8177674,0.4294532,-1.0958361,0.4822943,0.7370204,-1.9940
 523,0.9126219,-3.0233183,1.3430464,-2.0841208,-2.6455454,-1.6319091,0.
 6306322,-1.705077,1.2168321,-1.7574223,-2.6312185\HyperPolar=-9.390661
 1,-20.2061125,-11.5113938,-75.9369514,19.8741731,5.6762876,10.2072995,
 -4.0782148,-10.72637,48.1571756\PG=C01 [X(C2H1F6N1S1)]\NImag=0\\0.7024
 9372,0.01702281,0.71361325,-0.02772070,0.03755914,0.68071068,-0.108445
 55,0.04524414,0.01364394,0.12372218,0.04033843,-0.32883364,-0.06329967
 ,-0.09810441,0.47184564,0.01497679,-0.06567781,-0.10946613,-0.02130808
 ,0.10332726,0.12896545,-0.15416562,0.04158151,-0.08687267,-0.00599664,
 0.04128146,-0.02097944,0.18124831,0.03769555,-0.12402850,0.05959110,0.
 05190749,-0.06761953,0.04692095,-0.07743402,0.16507154,-0.08612878,0.0
 6546169,-0.22070725,-0.01227880,0.02300560,0.00725056,0.14155205,-0.12
 362681,0.32980831,-0.20963327,-0.01511125,0.12050245,-0.01486704,0.026
 54930,0.03416659,0.02052465,-0.00059029,-0.00205525,0.26925923,-0.0144
 5416,-0.09816379,0.00814085,0.04476665,-0.01400651,-0.05126989,-0.0082
 5648,0.00838128,0.03284470,0.00790887,0.09519116,0.12486948,0.01155164
 ,-0.22663348,0.03687683,-0.03275715,-0.02783595,0.02314064,0.02773163,
 -0.09203829,-0.20111137,-0.00978004,0.34454870,-0.21374523,-0.05011224
 ,-0.01914029,0.01024537,-0.00701284,-0.00664415,-0.04232724,-0.0153271
 1,-0.04256773,-0.06299469,-0.02923665,0.01591855,0.58855119,-0.0858957
 1,-0.14591336,-0.04767494,-0.03810561,-0.05614267,-0.03168054,-0.00012
 067,0.01769493,-0.00028223,-0.01457629,0.00645293,0.00055199,0.0861239
 2,0.52676982,-0.03294371,-0.05084912,-0.12121824,-0.01708063,-0.031698
 95,-0.00098955,-0.04958481,-0.01147934,-0.01987456,0.04988462,0.019502
 79,0.00037108,-0.13516589,0.31390158,0.45952704,-0.02924030,-0.0175605
 1,0.02292151,0.00007401,0.00356366,0.00156609,0.00557374,0.00199416,0.
 00378107,-0.00231113,-0.00148221,-0.00034760,-0.17146711,-0.01630026,0
 .10539958,0.32707790,-0.00470342,-0.00911713,0.01576631,-0.00181320,0.
 00037192,0.00084781,0.00202415,0.00115245,0.00163651,-0.00459294,0.001
 16793,-0.00023148,-0.02319976,-0.04698444,0.00862412,-0.04400503,0.159
 96394,0.01111758,0.01685871,0.00732546,-0.00213552,-0.00327304,-0.0009
 5200,-0.00672691,-0.00106376,-0.00625381,-0.00343824,-0.00283861,0.003
 17337,0.10452814,0.00213222,-0.13017558,-0.07147670,-0.09142573,0.2497
 1997,-0.01359605,-0.00027642,-0.00102308,0.00242420,0.00122832,0.00029
 989,0.00268595,-0.00006930,0.00074223,0.00399969,0.00038638,-0.0016902
 8,-0.01595748,0.00593368,-0.00157396,-0.08000093,0.03672195,-0.0275653
 4,0.60909625,0.00249265,0.02376513,0.00261291,0.00195052,-0.00820680,-
 0.00109980,-0.00244780,-0.00309009,-0.00077375,-0.00371672,-0.00374385
 ,0.00127378,-0.01523493,-0.00593571,-0.00328230,0.06014297,-0.08536949
 ,0.03960238,0.01646668,0.63394620,-0.00503552,-0.00618759,-0.00240991,
 0.00080061,0.00167279,-0.00012352,0.00091077,0.00027464,0.00075293,0.0
 0350582,0.00194313,-0.00200843,0.02521881,-0.00972850,-0.00732106,-0.0
 6216310,0.05213516,-0.07266127,-0.01406006,-0.00866865,0.64004545,0.00
 289654,0.00218112,-0.00085470,-0.00033295,-0.00064245,0.00002174,-0.00
 089770,-0.00030982,0.00004582,-0.00101514,-0.00029259,0.00060076,0.001
 90172,-0.00078436,0.00104767,-0.01006527,0.00348520,-0.03367222,-0.109
 38814,-0.01683578,-0.07277925,0.10135858,-0.00049598,-0.00317003,0.000
 28549,-0.00024173,0.00128177,0.00009545,0.00032488,0.00047554,-0.00009
 900,0.00031212,0.00041892,-0.00009965,0.00006595,0.00082866,-0.0000839
 3,0.00954803,0.00679977,0.01621933,-0.01106625,-0.10186658,-0.04906624
 ,0.02898840,0.13441807,0.00237832,0.00233477,-0.00164325,-0.00046021,-
 0.00026962,0.00039625,-0.00038729,-0.00025003,0.00058910,-0.00176929,-
 0.00055176,0.00130325,-0.00072586,-0.00254008,0.00762882,-0.01521686,0
 .00397904,-0.03947885,-0.06463564,-0.06358982,-0.32277212,0.06948094,0
 .11534765,0.44622407,0.00575007,0.00603193,0.00277826,-0.00078931,-0.0
 0125519,-0.00058851,-0.00211945,-0.00028298,-0.00189472,-0.00213175,-0
 .00113188,0.00088432,-0.01306968,0.00384658,0.00036420,-0.03218874,-0.
 00322856,0.02276073,-0.30042688,-0.00296032,0.11389224,0.00835836,0.00
 433010,0.02861467,0.36916473,-0.00094615,-0.00467850,-0.00176136,-0.00
 022652,0.00142843,0.00032463,0.00061069,0.00046520,0.00055318,0.001084
 71,0.00086178,-0.00033446,0.00650383,0.00202556,0.00243599,0.01094117,
 0.00640484,-0.00950138,0.00370982,-0.08981521,0.00321623,0.00878669,0.
 01329137,-0.01186491,0.03526636,0.09507496,-0.00059851,0.00013619,-0.0
 0016325,0.00019665,-0.00021640,0.00010350,0.00036980,-0.00006522,0.000
 37245,-0.00012063,-0.00016806,0.00006745,0.00045597,0.00225298,0.00161
 827,0.00392318,-0.00242638,0.00517993,0.10464252,0.00705436,-0.1488337
 6,0.05648002,-0.01155954,-0.07572040,-0.18984772,-0.01744801,0.2162508
 4,0.00261364,-0.00229579,0.00005092,-0.00208702,0.00104108,-0.00018977
 ,-0.00045717,0.00039484,-0.00027652,-0.00070182,0.00021151,0.00044400,
 0.00185463,-0.00091715,-0.00085182,0.00241791,0.02341419,-0.00515661,-
 0.09935974,-0.04061114,0.00083340,0.00719549,-0.03120113,-0.01539932,-
 0.03019935,-0.06603652,0.02567990,0.11866974,-0.00366241,-0.01053457,-
 0.00251530,-0.00081190,0.00485142,0.00097526,0.00087158,0.00151609,0.0
 0021415,0.00169795,0.00155987,-0.00021447,0.00334728,0.00767817,-0.004
 29821,-0.00006300,-0.04480891,0.01794978,-0.05406706,-0.35771006,0.015
 10935,-0.02394822,-0.05264554,-0.04233302,-0.04008783,-0.02518100,0.02
 250774,0.11590030,0.47514778,0.00116305,0.00130703,-0.00003903,-0.0003
 0410,-0.00054595,0.00009295,-0.00014252,-0.00013708,0.00006737,-0.0006
 9943,-0.00028435,0.00039412,-0.00193288,-0.00183145,0.00272667,0.00014
 260,0.02085111,0.00119717,0.00364721,0.02482757,-0.08834601,-0.0204206
 2,-0.07041907,-0.01540347,0.02401929,0.03424957,0.00118704,-0.00448331
 ,-0.00812296,0.09881556,0.01507205,-0.02670529,-0.02428563,-0.00394724
 ,-0.00698735,-0.00132115,-0.00406884,0.00202148,-0.00091936,-0.0001287
 3,0.00158055,0.00041466,-0.08299148,0.06079588,0.08050475,-0.00987008,
 0.01589742,0.01176509,0.00052313,0.00075387,0.00887627,-0.00001150,-0.
 00056437,-0.00187945,-0.00234801,0.00030591,-0.00118118,0.00005370,0.0
 0082332,-0.00098929,0.08771701,0.01260840,-0.01293886,-0.00870453,-0.0
 0456543,-0.00497003,-0.00276331,0.00156471,-0.00001891,0.00106598,0.00
 103453,0.00188027,0.00230821,0.04408256,-0.30647389,-0.24277263,-0.006
 77896,0.01041910,0.01534010,0.00103221,-0.00197354,-0.00070033,-0.0006
 2819,0.00016805,-0.00026221,-0.00052823,0.00012258,-0.00006764,0.00009
 982,0.00012675,0.00010557,-0.04792142,0.31365848,-0.00207800,-0.012494
 65,-0.00575560,0.00204932,0.00405512,0.00255845,-0.00127962,0.00210394
 ,0.00003320,0.00113475,0.00246124,-0.00134183,0.06005533,-0.22510102,-
 0.19229289,0.01147022,-0.00975647,-0.01707440,0.00121651,0.00204332,0.
 00367770,0.00004983,-0.00062048,-0.00112339,-0.00098275,0.00013053,-0.
 00006207,-0.00065088,0.00072768,-0.00069238,-0.07098471,0.23645080,0.2
 1207321\\-0.00003816,0.00003348,0.00000786,0.00000566,-0.00002957,-0.0
 0002623,0.00003092,-0.00001844,0.00002013,-0.00000444,0.00000303,0.000
 00858,-0.00001172,0.00000371,-0.00000447,0.00000849,0.00000499,0.00000
 283,0.00001401,0.00001366,0.00001356,-0.00001061,-0.00000693,-0.000019
 58,0.00000880,0.00000152,-0.00000550,-0.00000630,-0.00000929,0.0000054
 3,0.00000335,0.00000384,-0.00000260\\\@


 WHAT, THEN, IS TIME?  IF NO ONE ASKS ME, I KNOW WHAT IT IS.
 IF I WISH TO EXPLAIN WHAT IT IS TO HIM WHO ASKS ME, I DO NOT KNOW.
                                   -- ST. AUGUSTINE (FIFTH CENTURY)
 Job cpu time:  0 days  2 hours  0 minutes  8.2 seconds.
 File lengths (MBytes):  RWF=    142 Int=      0 D2E=      0 Chk=      9 Scr=      1
 Normal termination of Gaussian 09 at Fri May 29 11:05:03 2015.
